 vasp.5.4.4.18Apr17-6-g9f103f2a35 (build Sep 20 2017 14:02:52) complex          
  
 executed on             LinuxIFC date 2018.08.12  23:14:17
 running on   16 total cores
 distrk:  each k-point on   16 cores,    1 groups
 distr:  one band on NCORES_PER_BAND=   4 cores,    4 groups


--------------------------------------------------------------------------------------------------------


 INCAR:
 POTCAR:    PAW_PBE C 08Apr2002                   
 POTCAR:    PAW_PBE Si 05Jan2001                  
 POTCAR:    PAW_PBE C 08Apr2002                   
   VRHFIN =C: s2p2                                                              
   LEXCH  = PE                                                                  
   EATOM  =   147.1560 eV,   10.8157 Ry                                         
                                                                                
   TITEL  = PAW_PBE C 08Apr2002                                                 
   LULTRA =        F    use ultrasoft PP ?                                      
   IUNSCR =        1    unscreen: 0-lin 1-nonlin 2-no                           
   RPACOR =    1.200    partial core radius                                     
   POMASS =   12.011; ZVAL   =    4.000    mass and valenz                      
   RCORE  =    1.500    outmost cutoff radius                                   
   RWIGS  =    1.630; RWIGS  =    0.863    wigner-seitz radius (au A)           
   ENMAX  =  400.000; ENMIN  =  300.000 eV                                      
   ICORE  =        2    local potential                                         
   LCOR   =        T    correct aug charges                                     
   LPAW   =        T    paw PP                                                  
   EAUG   =  644.873                                                            
   DEXC   =    0.000                                                            
   RMAX   =    1.529    core radius for proj-oper                               
   RAUG   =    1.300    factor for augmentation sphere                          
   RDEP   =    1.501    radius for radial grids                                 
   RDEPT  =    1.300    core radius for aug-charge                              
                                                                                
   Atomic configuration                                                         
    4 entries                                                                   
     n  l   j            E        occ.                                          
     1  0  0.50      -273.3789   2.0000                                         
     2  0  0.50       -13.7508   2.0000                                         
     2  1  0.50        -5.2854   2.0000                                         
     3  2  1.50        -5.4423   0.0000                                         
   Description                                                                  
     l       E           TYP  RCUT    TYP  RCUT                                 
     0    -13.7508458     23  1.200                                             
     0     -8.2022199     23  1.200                                             
     1     -5.2854383     23  1.500                                             
     1     34.0145650     23  1.500                                             
     2     -5.4423304      7  1.500                                             
  local pseudopotential read in
  partial core-charges read in
  partial kinetic energy density read in
  atomic valenz-charges read in
  non local Contribution for L=           0  read in
    real space projection operators read in
  non local Contribution for L=           0  read in
    real space projection operators read in
  non local Contribution for L=           1  read in
    real space projection operators read in
  non local Contribution for L=           1  read in
    real space projection operators read in
    PAW grid and wavefunctions read in
 
   number of l-projection  operators is LMAX  =           4
   number of lm-projection operators is LMMAX =           8
 
 POTCAR:    PAW_PBE Si 05Jan2001                  
   VRHFIN =Si: s2p2                                                             
   LEXCH  = PE                                                                  
   EATOM  =   103.0669 eV,    7.5752 Ry                                         
                                                                                
   TITEL  = PAW_PBE Si 05Jan2001                                                
   LULTRA =        F    use ultrasoft PP ?                                      
   IUNSCR =        1    unscreen: 0-lin 1-nonlin 2-no                           
   RPACOR =    1.500    partial core radius                                     
   POMASS =   28.085; ZVAL   =    4.000    mass and valenz                      
   RCORE  =    1.900    outmost cutoff radius                                   
   RWIGS  =    2.480; RWIGS  =    1.312    wigner-seitz radius (au A)           
   ENMAX  =  245.345; ENMIN  =  184.009 eV                                      
   ICORE  =        2    local potential                                         
   LCOR   =        T    correct aug charges                                     
   LPAW   =        T    paw PP                                                  
   EAUG   =  322.069                                                            
   DEXC   =    0.000                                                            
   RMAX   =    1.950    core radius for proj-oper                               
   RAUG   =    1.300    factor for augmentation sphere                          
   RDEP   =    1.993    radius for radial grids                                 
   RDEPT  =    1.837    core radius for aug-charge                              
                                                                                
   Atomic configuration                                                         
    6 entries                                                                   
     n  l   j            E        occ.                                          
     1  0  0.50     -1785.8828   2.0000                                         
     2  0  0.50      -139.4969   2.0000                                         
     2  1  1.50       -95.5546   6.0000                                         
     3  0  0.50       -10.8127   2.0000                                         
     3  1  0.50        -4.0811   2.0000                                         
     3  2  1.50        -4.0817   0.0000                                         
   Description                                                                  
     l       E           TYP  RCUT    TYP  RCUT                                 
     0    -10.8127223     23  1.900                                             
     0     -7.6451159     23  1.900                                             
     1     -4.0811372     23  1.900                                             
     1      2.4879257     23  1.900                                             
     2     -4.0817478      7  1.900                                             
  local pseudopotential read in
  partial core-charges read in
  partial kinetic energy density read in
  atomic valenz-charges read in
  non local Contribution for L=           0  read in
    real space projection operators read in
  non local Contribution for L=           0  read in
    real space projection operators read in
  non local Contribution for L=           1  read in
    real space projection operators read in
  non local Contribution for L=           1  read in
    real space projection operators read in
    PAW grid and wavefunctions read in
 
   number of l-projection  operators is LMAX  =           4
   number of lm-projection operators is LMMAX =           8
 
  PAW_PBE C 08Apr2002                   :
 energy of atom  1       EATOM= -147.1560
 kinetic energy error for atom=    0.0065 (will be added to EATOM!!)
  PAW_PBE Si 05Jan2001                  :
 energy of atom  2       EATOM= -103.0669
 kinetic energy error for atom=    0.0004 (will be added to EATOM!!)
 
 
 POSCAR:  C Si                                   
  positions in direct lattice
  No initial velocities read in
 exchange correlation table for  LEXCH =        8
   RHO(1)=    0.500       N(1)  =     2000
   RHO(2)=  100.500       N(2)  =     4000
 


--------------------------------------------------------------------------------------------------------


 ion  position               nearest neighbor table
   1  0.691  0.890  0.179-  10 1.97  11 1.99  10 2.00   7 2.02   7 2.05
   2  0.733  0.364  0.642-   3 1.55  10 1.83  11 1.90  11 1.92
   3  0.540  0.339  0.731-   2 1.55   9 1.89   7 1.89   9 1.92
   4  0.329  0.844  0.097-   5 1.62   7 1.89   8 1.92   9 2.30
   5  0.262  0.124  0.330-   4 1.62  12 1.90  12 1.91   9 2.01   7 2.55
   6  0.013  0.766  0.524-  10 1.76   8 1.84   8 1.84
   7  0.527  0.974  0.770-   4 1.89   3 1.89   1 2.02   1 2.05  10 2.51   5 2.55   9 2.85   9 2.99
                            11 3.10
   8  0.135  0.690  0.960-   6 1.84   6 1.84   4 1.92  12 2.36  12 2.81   9 2.86   9 2.94  10 3.07
                            10 3.09
   9  0.406  0.430  0.293-   3 1.89   3 1.92   5 2.01   4 2.30  12 2.84   7 2.85   8 2.86   8 2.94
                            12 2.94   7 2.99
  10  0.798  0.697  0.627-   6 1.76   2 1.83   1 1.97   1 2.00   7 2.51  11 2.97  11 2.99  11 3.03
                            11 3.05   8 3.07   8 3.09
  11  0.832  0.193  0.091-   2 1.90   2 1.92   1 1.99  12 2.42  10 2.97  10 2.99  10 3.03  10 3.05
                             7 3.10
  12  0.133  0.234  0.899-   5 1.90   5 1.91   8 2.36  11 2.42   8 2.81   9 2.84   9 2.94
 
  LATTYP: Found a triclinic cell.
 ALAT       =     8.1107046475
 B/A-ratio  =     1.2174393758
 C/A-ratio  =     1.6598474081
 COS(alpha) =     0.0021323752
 COS(beta)  =     0.5991836621
 COS(gamma) =     0.7934220183
  
  Lattice vectors:
  
 A1 = (  -8.1107046475,   0.0000000000,   0.0000000000)
 A2 = (  -7.8344800553,  -5.2076734823,   3.0004476217)
 A3 = (  -8.0665292770,  10.3522069959,  -3.0004476217)


Analysis of symmetry for initial positions (statically):
=====================================================================
 Subroutine PRICEL returns:
 Original cell was already a primitive cell.
 

 Routine SETGRP: Setting up the symmetry group for a 
 triclinic supercell.


 Subroutine GETGRP returns: Found  1 space group operations
 (whereof  1 operations were pure point group operations)
 out of a pool of  2 trial point group operations.


The static configuration has the point symmetry C_1 .


Analysis of symmetry for dynamics (positions and initial velocities):
=====================================================================
 Subroutine PRICEL returns:
 Original cell was already a primitive cell.
 

 Routine SETGRP: Setting up the symmetry group for a 
 triclinic supercell.


 Subroutine GETGRP returns: Found  1 space group operations
 (whereof  1 operations were pure point group operations)
 out of a pool of  2 trial point group operations.


The dynamic configuration has the point symmetry C_1 .


Analysis of structural, dynamic, and magnetic symmetry:
=====================================================================
 Subroutine PRICEL returns:
 Original cell was already a primitive cell.
 

 Routine SETGRP: Setting up the symmetry group for a 
 triclinic supercell.


 Subroutine GETGRP returns: Found  1 space group operations
 (whereof  1 operations were pure point group operations)
 out of a pool of  2 trial point group operations.


The magnetic configuration has the point symmetry C_1 .


 Subroutine INISYM returns: Found  1 space group operations
 (whereof  1 operations are pure point group operations),
 and found     1 'primitive' translations

 
 
 KPOINTS: Automatic mesh                          

Automatic generation of k-mesh.
 generate k-points for:    4    6   10
Space group operators:
 irot       det(A)        alpha          n_x          n_y          n_z        tau_x        tau_y        tau_z
    1     1.000000     0.000000     1.000000     0.000000     0.000000     0.000000     0.000000     0.000000
 
 Subroutine IBZKPT returns following result:
 ===========================================
 
 Found    124 irreducible k-points:
 
 Following reciprocal coordinates:
            Coordinates               Weight
  0.000000  0.000000  0.000000      1.000000
  0.250000 -0.000000  0.000000      2.000000
  0.500000 -0.000000  0.000000      1.000000
  0.000000  0.166667  0.000000      2.000000
  0.250000  0.166667  0.000000      2.000000
  0.500000  0.166667  0.000000      2.000000
 -0.250000  0.166667  0.000000      2.000000
  0.000000  0.333333  0.000000      2.000000
  0.250000  0.333333  0.000000      2.000000
  0.500000  0.333333  0.000000      2.000000
 -0.250000  0.333333  0.000000      2.000000
  0.000000  0.500000  0.000000      1.000000
  0.250000  0.500000  0.000000      2.000000
  0.500000  0.500000  0.000000      1.000000
  0.000000  0.000000  0.100000      2.000000
  0.250000 -0.000000  0.100000      2.000000
  0.500000 -0.000000  0.100000      2.000000
 -0.250000  0.000000  0.100000      2.000000
  0.000000  0.166667  0.100000      2.000000
  0.250000  0.166667  0.100000      2.000000
  0.500000  0.166667  0.100000      2.000000
 -0.250000  0.166667  0.100000      2.000000
  0.000000  0.333333  0.100000      2.000000
  0.250000  0.333333  0.100000      2.000000
  0.500000  0.333333  0.100000      2.000000
 -0.250000  0.333333  0.100000      2.000000
  0.000000  0.500000  0.100000      2.000000
  0.250000  0.500000  0.100000      2.000000
  0.500000  0.500000  0.100000      2.000000
 -0.250000  0.500000  0.100000      2.000000
  0.000000 -0.333333  0.100000      2.000000
  0.250000 -0.333333  0.100000      2.000000
  0.500000 -0.333333  0.100000      2.000000
 -0.250000 -0.333333  0.100000      2.000000
  0.000000 -0.166667  0.100000      2.000000
  0.250000 -0.166667  0.100000      2.000000
  0.500000 -0.166667  0.100000      2.000000
 -0.250000 -0.166667  0.100000      2.000000
  0.000000  0.000000  0.200000      2.000000
  0.250000 -0.000000  0.200000      2.000000
  0.500000 -0.000000  0.200000      2.000000
 -0.250000  0.000000  0.200000      2.000000
  0.000000  0.166667  0.200000      2.000000
  0.250000  0.166667  0.200000      2.000000
  0.500000  0.166667  0.200000      2.000000
 -0.250000  0.166667  0.200000      2.000000
  0.000000  0.333333  0.200000      2.000000
  0.250000  0.333333  0.200000      2.000000
  0.500000  0.333333  0.200000      2.000000
 -0.250000  0.333333  0.200000      2.000000
  0.000000  0.500000  0.200000      2.000000
  0.250000  0.500000  0.200000      2.000000
  0.500000  0.500000  0.200000      2.000000
 -0.250000  0.500000  0.200000      2.000000
  0.000000 -0.333333  0.200000      2.000000
  0.250000 -0.333333  0.200000      2.000000
  0.500000 -0.333333  0.200000      2.000000
 -0.250000 -0.333333  0.200000      2.000000
  0.000000 -0.166667  0.200000      2.000000
  0.250000 -0.166667  0.200000      2.000000
  0.500000 -0.166667  0.200000      2.000000
 -0.250000 -0.166667  0.200000      2.000000
  0.000000  0.000000  0.300000      2.000000
  0.250000 -0.000000  0.300000      2.000000
  0.500000 -0.000000  0.300000      2.000000
 -0.250000  0.000000  0.300000      2.000000
  0.000000  0.166667  0.300000      2.000000
  0.250000  0.166667  0.300000      2.000000
  0.500000  0.166667  0.300000      2.000000
 -0.250000  0.166667  0.300000      2.000000
  0.000000  0.333333  0.300000      2.000000
  0.250000  0.333333  0.300000      2.000000
  0.500000  0.333333  0.300000      2.000000
 -0.250000  0.333333  0.300000      2.000000
  0.000000  0.500000  0.300000      2.000000
  0.250000  0.500000  0.300000      2.000000
  0.500000  0.500000  0.300000      2.000000
 -0.250000  0.500000  0.300000      2.000000
  0.000000 -0.333333  0.300000      2.000000
  0.250000 -0.333333  0.300000      2.000000
  0.500000 -0.333333  0.300000      2.000000
 -0.250000 -0.333333  0.300000      2.000000
  0.000000 -0.166667  0.300000      2.000000
  0.250000 -0.166667  0.300000      2.000000
  0.500000 -0.166667  0.300000      2.000000
 -0.250000 -0.166667  0.300000      2.000000
  0.000000  0.000000  0.400000      2.000000
  0.250000 -0.000000  0.400000      2.000000
  0.500000 -0.000000  0.400000      2.000000
 -0.250000  0.000000  0.400000      2.000000
  0.000000  0.166667  0.400000      2.000000
  0.250000  0.166667  0.400000      2.000000
  0.500000  0.166667  0.400000      2.000000
 -0.250000  0.166667  0.400000      2.000000
  0.000000  0.333333  0.400000      2.000000
  0.250000  0.333333  0.400000      2.000000
  0.500000  0.333333  0.400000      2.000000
 -0.250000  0.333333  0.400000      2.000000
  0.000000  0.500000  0.400000      2.000000
  0.250000  0.500000  0.400000      2.000000
  0.500000  0.500000  0.400000      2.000000
 -0.250000  0.500000  0.400000      2.000000
  0.000000 -0.333333  0.400000      2.000000
  0.250000 -0.333333  0.400000      2.000000
  0.500000 -0.333333  0.400000      2.000000
 -0.250000 -0.333333  0.400000      2.000000
  0.000000 -0.166667  0.400000      2.000000
  0.250000 -0.166667  0.400000      2.000000
  0.500000 -0.166667  0.400000      2.000000
 -0.250000 -0.166667  0.400000      2.000000
  0.000000  0.000000  0.500000      1.000000
  0.250000 -0.000000  0.500000      2.000000
  0.500000 -0.000000  0.500000      1.000000
  0.000000  0.166667  0.500000      2.000000
  0.250000  0.166667  0.500000      2.000000
  0.500000  0.166667  0.500000      2.000000
 -0.250000  0.166667  0.500000      2.000000
  0.000000  0.333333  0.500000      2.000000
  0.250000  0.333333  0.500000      2.000000
  0.500000  0.333333  0.500000      2.000000
 -0.250000  0.333333  0.500000      2.000000
  0.000000  0.500000  0.500000      1.000000
  0.250000  0.500000  0.500000      2.000000
  0.500000  0.500000  0.500000      1.000000
 
 Following cartesian coordinates:
            Coordinates               Weight
  0.000000  0.000000  0.000000      1.000000
  0.030823 -0.001920 -0.006169      2.000000
  0.061647 -0.003839 -0.012339      1.000000
  0.000000  0.032397  0.000682      2.000000
  0.030823  0.030477 -0.005488      2.000000
  0.061647  0.028557 -0.011657      2.000000
 -0.030823  0.034317  0.006851      2.000000
  0.000000  0.064794  0.001363      2.000000
  0.030823  0.062874 -0.004806      2.000000
  0.061647  0.060954 -0.010976      2.000000
 -0.030823  0.066713  0.007533      2.000000
  0.000000  0.097191  0.002045      1.000000
  0.030823  0.095271 -0.004124      2.000000
  0.061647  0.093351 -0.010294      1.000000
  0.000000  0.000000  0.033328      2.000000
  0.030823 -0.001920  0.027159      2.000000
  0.061647 -0.003839  0.020989      2.000000
 -0.030823  0.001920  0.039498      2.000000
  0.000000  0.032397  0.034010      2.000000
  0.030823  0.030477  0.027841      2.000000
  0.061647  0.028557  0.021671      2.000000
 -0.030823  0.034317  0.040180      2.000000
  0.000000  0.064794  0.034692      2.000000
  0.030823  0.062874  0.028522      2.000000
  0.061647  0.060954  0.022353      2.000000
 -0.030823  0.066713  0.040861      2.000000
  0.000000  0.097191  0.035374      2.000000
  0.030823  0.095271  0.029204      2.000000
  0.061647  0.093351  0.023035      2.000000
 -0.030823  0.099110  0.041543      2.000000
  0.000000 -0.064794  0.031965      2.000000
  0.030823 -0.066713  0.025795      2.000000
  0.061647 -0.068633  0.019626      2.000000
 -0.030823 -0.062874  0.038134      2.000000
  0.000000 -0.032397  0.032647      2.000000
  0.030823 -0.034317  0.026477      2.000000
  0.061647 -0.036236  0.020308      2.000000
 -0.030823 -0.030477  0.038816      2.000000
  0.000000  0.000000  0.066657      2.000000
  0.030823 -0.001920  0.060487      2.000000
  0.061647 -0.003839  0.054318      2.000000
 -0.030823  0.001920  0.072826      2.000000
  0.000000  0.032397  0.067338      2.000000
  0.030823  0.030477  0.061169      2.000000
  0.061647  0.028557  0.054999      2.000000
 -0.030823  0.034317  0.073508      2.000000
  0.000000  0.064794  0.068020      2.000000
  0.030823  0.062874  0.061851      2.000000
  0.061647  0.060954  0.055681      2.000000
 -0.030823  0.066713  0.074190      2.000000
  0.000000  0.097191  0.068702      2.000000
  0.030823  0.095271  0.062532      2.000000
  0.061647  0.093351  0.056363      2.000000
 -0.030823  0.099110  0.074871      2.000000
  0.000000 -0.064794  0.065293      2.000000
  0.030823 -0.066713  0.059124      2.000000
  0.061647 -0.068633  0.052954      2.000000
 -0.030823 -0.062874  0.071463      2.000000
  0.000000 -0.032397  0.065975      2.000000
  0.030823 -0.034317  0.059805      2.000000
  0.061647 -0.036236  0.053636      2.000000
 -0.030823 -0.030477  0.072144      2.000000
  0.000000  0.000000  0.099985      2.000000
  0.030823 -0.001920  0.093816      2.000000
  0.061647 -0.003839  0.087646      2.000000
 -0.030823  0.001920  0.106155      2.000000
  0.000000  0.032397  0.100667      2.000000
  0.030823  0.030477  0.094497      2.000000
  0.061647  0.028557  0.088328      2.000000
 -0.030823  0.034317  0.106836      2.000000
  0.000000  0.064794  0.101349      2.000000
  0.030823  0.062874  0.095179      2.000000
  0.061647  0.060954  0.089010      2.000000
 -0.030823  0.066713  0.107518      2.000000
  0.000000  0.097191  0.102030      2.000000
  0.030823  0.095271  0.095861      2.000000
  0.061647  0.093351  0.089691      2.000000
 -0.030823  0.099110  0.108200      2.000000
  0.000000 -0.064794  0.098622      2.000000
  0.030823 -0.066713  0.092452      2.000000
  0.061647 -0.068633  0.086283      2.000000
 -0.030823 -0.062874  0.104791      2.000000
  0.000000 -0.032397  0.099303      2.000000
  0.030823 -0.034317  0.093134      2.000000
  0.061647 -0.036236  0.086964      2.000000
 -0.030823 -0.030477  0.105473      2.000000
  0.000000  0.000000  0.133313      2.000000
  0.030823 -0.001920  0.127144      2.000000
  0.061647 -0.003839  0.120974      2.000000
 -0.030823  0.001920  0.139483      2.000000
  0.000000  0.032397  0.133995      2.000000
  0.030823  0.030477  0.127826      2.000000
  0.061647  0.028557  0.121656      2.000000
 -0.030823  0.034317  0.140165      2.000000
  0.000000  0.064794  0.134677      2.000000
  0.030823  0.062874  0.128507      2.000000
  0.061647  0.060954  0.122338      2.000000
 -0.030823  0.066713  0.140846      2.000000
  0.000000  0.097191  0.135359      2.000000
  0.030823  0.095271  0.129189      2.000000
  0.061647  0.093351  0.123020      2.000000
 -0.030823  0.099110  0.141528      2.000000
  0.000000 -0.064794  0.131950      2.000000
  0.030823 -0.066713  0.125780      2.000000
  0.061647 -0.068633  0.119611      2.000000
 -0.030823 -0.062874  0.138119      2.000000
  0.000000 -0.032397  0.132632      2.000000
  0.030823 -0.034317  0.126462      2.000000
  0.061647 -0.036236  0.120293      2.000000
 -0.030823 -0.030477  0.138801      2.000000
  0.000000  0.000000  0.166642      1.000000
  0.030823 -0.001920  0.160472      2.000000
  0.061647 -0.003839  0.154303      1.000000
  0.000000  0.032397  0.167324      2.000000
  0.030823  0.030477  0.161154      2.000000
  0.061647  0.028557  0.154985      2.000000
 -0.030823  0.034317  0.173493      2.000000
  0.000000  0.064794  0.168005      2.000000
  0.030823  0.062874  0.161836      2.000000
  0.061647  0.060954  0.155666      2.000000
 -0.030823  0.066713  0.174175      2.000000
  0.000000  0.097191  0.168687      1.000000
  0.030823  0.095271  0.162518      2.000000
  0.061647  0.093351  0.156348      1.000000
 


--------------------------------------------------------------------------------------------------------




 Dimension of arrays:
   k-points           NKPTS =    124   k-points in BZ     NKDIM =    124   number of bands    NBANDS=     40
   number of dos      NEDOS =    301   number of ions     NIONS =     12
   non local maximal  LDIM  =      4   non local SUM 2l+1 LMDIM =      8
   total plane-waves  NPLWV =  61440
   max r-space proj   IRMAX =      1   max aug-charges    IRDMAX=  48649
   dimension x,y,z NGX =    64 NGY =   40 NGZ =   24
   dimension x,y,z NGXF=    90 NGYF=   56 NGZF=   36
   support grid    NGXF=   180 NGYF=  112 NGZF=   72
   ions per type =               6   6
   NGX,Y,Z   is equivalent  to a cutoff of  13.12, 12.90, 13.04 a.u.
   NGXF,Y,Z  is equivalent  to a cutoff of  18.45, 18.06, 19.56 a.u.

 SYSTEM =  TEST                                    
 POSCAR =   C Si                                   

 Startparameter for this run:
   NWRITE =      2    write-flag & timer
   PREC   = high      normal or accurate (medium, high low for compatibility)
   ISTART =      1    job   : 0-new  1-cont  2-samecut
   ICHARG =      0    charge: 1-file 2-atom 10-const
   ISPIN  =      2    spin polarized calculation?
   LNONCOLLINEAR =      F non collinear calculations
   LSORBIT =      F    spin-orbit coupling
   INIWAV =      1    electr: 0-lowe 1-rand  2-diag
   LASPH  =      T    aspherical Exc in radial PAW
   METAGGA=      F    non-selfconsistent MetaGGA calc.

 Electronic Relaxation 1
   ENCUT  =  560.0 eV  41.16 Ry    6.42 a.u.  15.65  9.95  5.90*2*pi/ulx,y,z
   ENINI  =  560.0     initial cutoff
   ENAUG  =  644.9 eV  augmentation charge cutoff
   NELM   =    100;   NELMIN=  8; NELMDL=  0     # of ELM steps 
   EDIFF  = 0.1E-06   stopping-criterion for ELM
   LREAL  =      F    real-space projection
   NLSPLINE    = F    spline interpolate recip. space projectors
   LCOMPAT=      F    compatible to vasp.4.4
   GGA_COMPAT  = T    GGA compatible to vasp.4.4-vasp.4.6
   LMAXPAW     = -100 max onsite density
   LMAXMIX     =    4 max onsite mixed and CHGCAR
   VOSKOWN=      0    Vosko Wilk Nusair interpolation
   ROPT   =    0.00000   0.00000
 Ionic relaxation
   EDIFFG = -.1E-02   stopping-criterion for IOM
   NSW    =      1    number of steps for IOM
   NBLOCK =      1;   KBLOCK =      1    inner block; outer block 
   IBRION =      2    ionic relax: 0-MD 1-quasi-New 2-CG
   NFREE  =      1    steps in history (QN), initial steepest desc. (CG)
   ISIF   =      2    stress and relaxation
   IWAVPR =     11    prediction:  0-non 1-charg 2-wave 3-comb
   ISYM   =      2    0-nonsym 1-usesym 2-fastsym
   LCORR  =      T    Harris-Foulkes like correction to forces

   POTIM  = 0.5000    time-step for ionic-motion
   TEIN   =    0.0    initial temperature
   TEBEG  =    0.0;   TEEND  =   0.0 temperature during run
   SMASS  =  -3.00    Nose mass-parameter (am)
   estimated Nose-frequenzy (Omega)   =  0.10E-29 period in steps =****** mass=  -0.150E-26a.u.
   SCALEE = 1.0000    scale energy and forces
   NPACO  =    256;   APACO  = 16.0  distance and # of slots for P.C.
   PSTRESS=    0.0 pullay stress

  Mass of Ions in am
   POMASS =  12.01 28.09
  Ionic Valenz
   ZVAL   =   4.00  4.00
  Atomic Wigner-Seitz radii
   RWIGS  =  -1.00 -1.00
  virtual crystal weights 
   VCA    =   1.00  1.00
   NELECT =      48.0000    total number of electrons
   NUPDOWN=      -1.0000    fix difference up-down

 DOS related values:
   EMIN   =  10.00;   EMAX   =-10.00  energy-range for DOS
   EFERMI =   0.00
   ISMEAR =     0;   SIGMA  =   0.02  broadening in eV -4-tet -1-fermi 0-gaus

 Electronic relaxation 2 (details)
   IALGO  =     38    algorithm
   LDIAG  =      T    sub-space diagonalisation (order eigenvalues)
   LSUBROT=      F    optimize rotation matrix (better conditioning)
   TURBO    =      0    0=normal 1=particle mesh
   IRESTART =      0    0=no restart 2=restart with 2 vectors
   NREBOOT  =      0    no. of reboots
   NMIN     =      0    reboot dimension
   EREF     =   0.00    reference energy to select bands
   IMIX   =      4    mixing-type and parameters
     AMIX     =   0.40;   BMIX     =  1.00
     AMIX_MAG =   1.60;   BMIX_MAG =  1.00
     AMIN     =   0.10
     WC   =   100.;   INIMIX=   1;  MIXPRE=   1;  MAXMIX= -45

 Intra band minimization:
   WEIMIN = 0.0010     energy-eigenvalue tresh-hold
   EBREAK =  0.63E-09  absolut break condition
   DEPER  =   0.30     relativ break condition  

   TIME   =   0.40     timestep for ELM

  volume/ion in A,a.u.               =      10.43        70.41
  Fermi-wavevector in a.u.,A,eV,Ry     =   1.189301  2.247453 19.244574  1.414436
  Thomas-Fermi vector in A             =   2.325411
 
 Write flags
   LWAVE        =      T    write WAVECAR
   LDOWNSAMPLE  =      F    k-point downsampling of WAVECAR
   LCHARG       =      T    write CHGCAR
   LVTOT        =      F    write LOCPOT, total local potential
   LVHAR        =      F    write LOCPOT, Hartree potential only
   LELF         =      F    write electronic localiz. function (ELF)
   LORBIT       =     11    0 simple, 1 ext, 2 COOP (PROOUT), +10 PAW based schemes


 Dipole corrections
   LMONO  =      F    monopole corrections only (constant potential shift)
   LDIPOL =      F    correct potential (dipole corrections)
   IDIPOL =      0    1-x, 2-y, 3-z, 4-all directions 
   EPSILON=  1.0000000 bulk dielectric constant

 Exchange correlation treatment:
   GGA     =    --    GGA type
   LEXCH   =     8    internal setting for exchange type
   VOSKOWN=      0    Vosko Wilk Nusair interpolation
   LHFCALC =     F    Hartree Fock is set to
   LHFONE  =     F    Hartree Fock one center treatment
   AEXX    =    0.0000 exact exchange contribution

 Linear response parameters
   LEPSILON=     F    determine dielectric tensor
   LRPA    =     F    only Hartree local field effects (RPA)
   LNABLA  =     F    use nabla operator in PAW spheres
   LVEL    =     F    velocity operator in full k-point grid
   LINTERFAST=   F  fast interpolation
   KINTER  =     0    interpolate to denser k-point grid
   CSHIFT  =0.1000    complex shift for real part using Kramers Kronig
   OMEGAMAX=  -1.0    maximum frequency
   DEG_THRESHOLD= 0.2000000E-02 threshold for treating states as degnerate
   RTIME   =   -0.100 relaxation time in fs
  (WPLASMAI=    0.000 imaginary part of plasma frequency in eV, 0.658/RTIME)
   DFIELD  = 0.0000000 0.0000000 0.0000000 field for delta impulse in time
 
 Orbital magnetization related:
   ORBITALMAG=     F  switch on orbital magnetization
   LCHIMAG   =     F  perturbation theory with respect to B field
   DQ        =  0.001000  dq finite difference perturbation B field
   LLRAUG    =     F  two centre corrections for induced B field



--------------------------------------------------------------------------------------------------------


 conjugate gradient relaxation of ions
 charge density and potential will be updated during run
 spin polarized calculation
 Variant of blocked Davidson
 Davidson routine will perform the subspace rotation
 perform sub-space diagonalisation
    after iterative eigenvector-optimisation
 modified Broyden-mixing scheme, WC =      100.0
 initial mixing is a Kerker type mixing with AMIX =  0.4000 and BMIX =      1.0000
 Hartree-type preconditioning will be used
 using additional bands           16
 reciprocal scheme for non local part
 use partial core corrections
 calculate Harris-corrections to forces 
   (improved forces if not selfconsistent)
 use gradient corrections 
 use of overlap-Matrix (Vanderbilt PP)
 Gauss-broadening in eV      SIGMA  =   0.02


--------------------------------------------------------------------------------------------------------


  energy-cutoff  :      560.00
  volume of cell :      125.20
      direct lattice vectors                 reciprocal lattice vectors
     8.110704647  0.000000000  0.000000000     0.123293850 -0.007678703 -0.024677975
     0.320399963  5.144533514  0.000000000     0.000000000  0.194381084  0.004090462
     0.596624555 -0.063139969  3.000447622     0.000000000  0.000000000  0.333283605

  length of vectors
     8.110704647  5.154501063  3.059842062     0.125973562  0.194424118  0.333283605


 
 old parameters found on file WAVECAR:
  energy-cutoff  :      560.00
  volume of cell :      125.20
      direct lattice vectors                 reciprocal lattice vectors
     8.110704647  0.000000000  0.000000000     0.123293850 -0.007678703 -0.024677975
     0.320399963  5.144533514  0.000000000     0.000000000  0.194381084  0.004090462
     0.596624555 -0.063139969  3.000447622     0.000000000  0.000000000  0.333283605

  length of vectors

 
 k-points in units of 2pi/SCALE and weight: Automatic mesh                          
   0.00000000  0.00000000  0.00000000       0.004
   0.03082346 -0.00191968 -0.00616949       0.008
   0.06164692 -0.00383935 -0.01233899       0.004
   0.00000000  0.03239685  0.00068174       0.008
   0.03082346  0.03047717 -0.00548775       0.008
   0.06164692  0.02855750 -0.01165724       0.008
  -0.03082346  0.03431652  0.00685124       0.008
   0.00000000  0.06479369  0.00136349       0.008
   0.03082346  0.06287402 -0.00480601       0.008
   0.06164692  0.06095434 -0.01097550       0.008
  -0.03082346  0.06671337  0.00753298       0.008
   0.00000000  0.09719054  0.00204523       0.004
   0.03082346  0.09527087 -0.00412426       0.008
   0.06164692  0.09335119 -0.01029376       0.004
   0.00000000  0.00000000  0.03332836       0.008
   0.03082346 -0.00191968  0.02715887       0.008
   0.06164692 -0.00383935  0.02098937       0.008
  -0.03082346  0.00191968  0.03949785       0.008
   0.00000000  0.03239685  0.03401010       0.008
   0.03082346  0.03047717  0.02784061       0.008
   0.06164692  0.02855750  0.02167112       0.008
  -0.03082346  0.03431652  0.04017960       0.008
   0.00000000  0.06479369  0.03469185       0.008
   0.03082346  0.06287402  0.02852235       0.008
   0.06164692  0.06095434  0.02235286       0.008
  -0.03082346  0.06671337  0.04086134       0.008
   0.00000000  0.09719054  0.03537359       0.008
   0.03082346  0.09527087  0.02920410       0.008
   0.06164692  0.09335119  0.02303460       0.008
  -0.03082346  0.09911022  0.04154309       0.008
   0.00000000 -0.06479369  0.03196487       0.008
   0.03082346 -0.06671337  0.02579538       0.008
   0.06164692 -0.06863305  0.01962589       0.008
  -0.03082346 -0.06287402  0.03813437       0.008
   0.00000000 -0.03239685  0.03264662       0.008
   0.03082346 -0.03431652  0.02647712       0.008
   0.06164692 -0.03623620  0.02030763       0.008
  -0.03082346 -0.03047717  0.03881611       0.008
   0.00000000  0.00000000  0.06665672       0.008
   0.03082346 -0.00191968  0.06048723       0.008
   0.06164692 -0.00383935  0.05431773       0.008
  -0.03082346  0.00191968  0.07282621       0.008
   0.00000000  0.03239685  0.06733846       0.008
   0.03082346  0.03047717  0.06116897       0.008
   0.06164692  0.02855750  0.05499948       0.008
  -0.03082346  0.03431652  0.07350796       0.008
   0.00000000  0.06479369  0.06802021       0.008
   0.03082346  0.06287402  0.06185071       0.008
   0.06164692  0.06095434  0.05568122       0.008
  -0.03082346  0.06671337  0.07418970       0.008
   0.00000000  0.09719054  0.06870195       0.008
   0.03082346  0.09527087  0.06253246       0.008
   0.06164692  0.09335119  0.05636296       0.008
  -0.03082346  0.09911022  0.07487145       0.008
   0.00000000 -0.06479369  0.06529323       0.008
   0.03082346 -0.06671337  0.05912374       0.008
   0.06164692 -0.06863305  0.05295425       0.008
  -0.03082346 -0.06287402  0.07146273       0.008
   0.00000000 -0.03239685  0.06597498       0.008
   0.03082346 -0.03431652  0.05980548       0.008
   0.06164692 -0.03623620  0.05363599       0.008
  -0.03082346 -0.03047717  0.07214447       0.008
   0.00000000  0.00000000  0.09998508       0.008
   0.03082346 -0.00191968  0.09381559       0.008
   0.06164692 -0.00383935  0.08764609       0.008
  -0.03082346  0.00191968  0.10615458       0.008
   0.00000000  0.03239685  0.10066683       0.008
   0.03082346  0.03047717  0.09449733       0.008
   0.06164692  0.02855750  0.08832784       0.008
  -0.03082346  0.03431652  0.10683632       0.008
   0.00000000  0.06479369  0.10134857       0.008
   0.03082346  0.06287402  0.09517907       0.008
   0.06164692  0.06095434  0.08900958       0.008
  -0.03082346  0.06671337  0.10751806       0.008
   0.00000000  0.09719054  0.10203031       0.008
   0.03082346  0.09527087  0.09586082       0.008
   0.06164692  0.09335119  0.08969132       0.008
  -0.03082346  0.09911022  0.10819981       0.008
   0.00000000 -0.06479369  0.09862159       0.008
   0.03082346 -0.06671337  0.09245210       0.008
   0.06164692 -0.06863305  0.08628261       0.008
  -0.03082346 -0.06287402  0.10479109       0.008
   0.00000000 -0.03239685  0.09930334       0.008
   0.03082346 -0.03431652  0.09313384       0.008
   0.06164692 -0.03623620  0.08696435       0.008
  -0.03082346 -0.03047717  0.10547283       0.008
   0.00000000  0.00000000  0.13331344       0.008
   0.03082346 -0.00191968  0.12714395       0.008
   0.06164692 -0.00383935  0.12097445       0.008
  -0.03082346  0.00191968  0.13948294       0.008
   0.00000000  0.03239685  0.13399519       0.008
   0.03082346  0.03047717  0.12782569       0.008
   0.06164692  0.02855750  0.12165620       0.008
  -0.03082346  0.03431652  0.14016468       0.008
   0.00000000  0.06479369  0.13467693       0.008
   0.03082346  0.06287402  0.12850744       0.008
   0.06164692  0.06095434  0.12233794       0.008
  -0.03082346  0.06671337  0.14084642       0.008
   0.00000000  0.09719054  0.13535867       0.008
   0.03082346  0.09527087  0.12918918       0.008
   0.06164692  0.09335119  0.12301969       0.008
  -0.03082346  0.09911022  0.14152817       0.008
   0.00000000 -0.06479369  0.13194995       0.008
   0.03082346 -0.06671337  0.12578046       0.008
   0.06164692 -0.06863305  0.11961097       0.008
  -0.03082346 -0.06287402  0.13811945       0.008
   0.00000000 -0.03239685  0.13263170       0.008
   0.03082346 -0.03431652  0.12646220       0.008
   0.06164692 -0.03623620  0.12029271       0.008
  -0.03082346 -0.03047717  0.13880119       0.008
   0.00000000  0.00000000  0.16664180       0.004
   0.03082346 -0.00191968  0.16047231       0.008
   0.06164692 -0.00383935  0.15430282       0.004
   0.00000000  0.03239685  0.16732355       0.008
   0.03082346  0.03047717  0.16115405       0.008
   0.06164692  0.02855750  0.15498456       0.008
  -0.03082346  0.03431652  0.17349304       0.008
   0.00000000  0.06479369  0.16800529       0.008
   0.03082346  0.06287402  0.16183580       0.008
   0.06164692  0.06095434  0.15566630       0.008
  -0.03082346  0.06671337  0.17417478       0.008
   0.00000000  0.09719054  0.16868703       0.004
   0.03082346  0.09527087  0.16251754       0.008
   0.06164692  0.09335119  0.15634805       0.004
 
 k-points in reciprocal lattice and weights: Automatic mesh                          
   0.00000000  0.00000000  0.00000000       0.004
   0.25000000 -0.00000000  0.00000000       0.008
   0.50000000 -0.00000000  0.00000000       0.004
   0.00000000  0.16666667  0.00000000       0.008
   0.25000000  0.16666667  0.00000000       0.008
   0.50000000  0.16666667  0.00000000       0.008
  -0.25000000  0.16666667  0.00000000       0.008
   0.00000000  0.33333333  0.00000000       0.008
   0.25000000  0.33333333  0.00000000       0.008
   0.50000000  0.33333333  0.00000000       0.008
  -0.25000000  0.33333333  0.00000000       0.008
   0.00000000  0.50000000  0.00000000       0.004
   0.25000000  0.50000000  0.00000000       0.008
   0.50000000  0.50000000  0.00000000       0.004
   0.00000000  0.00000000  0.10000000       0.008
   0.25000000 -0.00000000  0.10000000       0.008
   0.50000000 -0.00000000  0.10000000       0.008
  -0.25000000  0.00000000  0.10000000       0.008
   0.00000000  0.16666667  0.10000000       0.008
   0.25000000  0.16666667  0.10000000       0.008
   0.50000000  0.16666667  0.10000000       0.008
  -0.25000000  0.16666667  0.10000000       0.008
   0.00000000  0.33333333  0.10000000       0.008
   0.25000000  0.33333333  0.10000000       0.008
   0.50000000  0.33333333  0.10000000       0.008
  -0.25000000  0.33333333  0.10000000       0.008
   0.00000000  0.50000000  0.10000000       0.008
   0.25000000  0.50000000  0.10000000       0.008
   0.50000000  0.50000000  0.10000000       0.008
  -0.25000000  0.50000000  0.10000000       0.008
   0.00000000 -0.33333333  0.10000000       0.008
   0.25000000 -0.33333333  0.10000000       0.008
   0.50000000 -0.33333333  0.10000000       0.008
  -0.25000000 -0.33333333  0.10000000       0.008
   0.00000000 -0.16666667  0.10000000       0.008
   0.25000000 -0.16666667  0.10000000       0.008
   0.50000000 -0.16666667  0.10000000       0.008
  -0.25000000 -0.16666667  0.10000000       0.008
   0.00000000  0.00000000  0.20000000       0.008
   0.25000000 -0.00000000  0.20000000       0.008
   0.50000000 -0.00000000  0.20000000       0.008
  -0.25000000  0.00000000  0.20000000       0.008
   0.00000000  0.16666667  0.20000000       0.008
   0.25000000  0.16666667  0.20000000       0.008
   0.50000000  0.16666667  0.20000000       0.008
  -0.25000000  0.16666667  0.20000000       0.008
   0.00000000  0.33333333  0.20000000       0.008
   0.25000000  0.33333333  0.20000000       0.008
   0.50000000  0.33333333  0.20000000       0.008
  -0.25000000  0.33333333  0.20000000       0.008
   0.00000000  0.50000000  0.20000000       0.008
   0.25000000  0.50000000  0.20000000       0.008
   0.50000000  0.50000000  0.20000000       0.008
  -0.25000000  0.50000000  0.20000000       0.008
   0.00000000 -0.33333333  0.20000000       0.008
   0.25000000 -0.33333333  0.20000000       0.008
   0.50000000 -0.33333333  0.20000000       0.008
  -0.25000000 -0.33333333  0.20000000       0.008
   0.00000000 -0.16666667  0.20000000       0.008
   0.25000000 -0.16666667  0.20000000       0.008
   0.50000000 -0.16666667  0.20000000       0.008
  -0.25000000 -0.16666667  0.20000000       0.008
   0.00000000  0.00000000  0.30000000       0.008
   0.25000000 -0.00000000  0.30000000       0.008
   0.50000000 -0.00000000  0.30000000       0.008
  -0.25000000  0.00000000  0.30000000       0.008
   0.00000000  0.16666667  0.30000000       0.008
   0.25000000  0.16666667  0.30000000       0.008
   0.50000000  0.16666667  0.30000000       0.008
  -0.25000000  0.16666667  0.30000000       0.008
   0.00000000  0.33333333  0.30000000       0.008
   0.25000000  0.33333333  0.30000000       0.008
   0.50000000  0.33333333  0.30000000       0.008
  -0.25000000  0.33333333  0.30000000       0.008
   0.00000000  0.50000000  0.30000000       0.008
   0.25000000  0.50000000  0.30000000       0.008
   0.50000000  0.50000000  0.30000000       0.008
  -0.25000000  0.50000000  0.30000000       0.008
   0.00000000 -0.33333333  0.30000000       0.008
   0.25000000 -0.33333333  0.30000000       0.008
   0.50000000 -0.33333333  0.30000000       0.008
  -0.25000000 -0.33333333  0.30000000       0.008
   0.00000000 -0.16666667  0.30000000       0.008
   0.25000000 -0.16666667  0.30000000       0.008
   0.50000000 -0.16666667  0.30000000       0.008
  -0.25000000 -0.16666667  0.30000000       0.008
   0.00000000  0.00000000  0.40000000       0.008
   0.25000000 -0.00000000  0.40000000       0.008
   0.50000000 -0.00000000  0.40000000       0.008
  -0.25000000  0.00000000  0.40000000       0.008
   0.00000000  0.16666667  0.40000000       0.008
   0.25000000  0.16666667  0.40000000       0.008
   0.50000000  0.16666667  0.40000000       0.008
  -0.25000000  0.16666667  0.40000000       0.008
   0.00000000  0.33333333  0.40000000       0.008
   0.25000000  0.33333333  0.40000000       0.008
   0.50000000  0.33333333  0.40000000       0.008
  -0.25000000  0.33333333  0.40000000       0.008
   0.00000000  0.50000000  0.40000000       0.008
   0.25000000  0.50000000  0.40000000       0.008
   0.50000000  0.50000000  0.40000000       0.008
  -0.25000000  0.50000000  0.40000000       0.008
   0.00000000 -0.33333333  0.40000000       0.008
   0.25000000 -0.33333333  0.40000000       0.008
   0.50000000 -0.33333333  0.40000000       0.008
  -0.25000000 -0.33333333  0.40000000       0.008
   0.00000000 -0.16666667  0.40000000       0.008
   0.25000000 -0.16666667  0.40000000       0.008
   0.50000000 -0.16666667  0.40000000       0.008
  -0.25000000 -0.16666667  0.40000000       0.008
   0.00000000  0.00000000  0.50000000       0.004
   0.25000000 -0.00000000  0.50000000       0.008
   0.50000000 -0.00000000  0.50000000       0.004
   0.00000000  0.16666667  0.50000000       0.008
   0.25000000  0.16666667  0.50000000       0.008
   0.50000000  0.16666667  0.50000000       0.008
  -0.25000000  0.16666667  0.50000000       0.008
   0.00000000  0.33333333  0.50000000       0.008
   0.25000000  0.33333333  0.50000000       0.008
   0.50000000  0.33333333  0.50000000       0.008
  -0.25000000  0.33333333  0.50000000       0.008
   0.00000000  0.50000000  0.50000000       0.004
   0.25000000  0.50000000  0.50000000       0.008
   0.50000000  0.50000000  0.50000000       0.004
 
 position of ions in fractional coordinates (direct lattice) 
   0.69064895  0.89010565  0.17875983
   0.73273661  0.36372041  0.64208587
   0.53957447  0.33850337  0.73060812
   0.32894140  0.84387522  0.09701863
   0.26159246  0.12449522  0.32989671
   0.01258486  0.76563929  0.52399136
   0.52740940  0.97391392  0.77001744
   0.13498811  0.68974326  0.96032306
   0.40602903  0.43029932  0.29333737
   0.79836969  0.69660175  0.62658043
   0.83237645  0.19308546  0.09110801
   0.13349007  0.23413276  0.89913032
 
 position of ions in cartesian coordinates  (Angst):
   5.99349197  4.56789146  0.53635950
   6.44263041  1.83063056  1.92654502
   4.92068434  1.69531134  2.19215138
   2.99620781  4.33521861  0.29109932
   2.35841192  0.61964016  0.98983779
   0.66000902  3.90577220  1.57220862
   5.04911515  4.96171395  2.31039701
   1.88879477  3.48777257  2.88139905
   3.60606167  2.19516798  0.88014340
   7.07236522  3.54412879  1.88002176
   6.86738142  0.98758205  0.27336482
   1.69415792  1.14773279  2.69779343
 


--------------------------------------------------------------------------------------------------------


 k-point  1 :   0.0000 0.0000 0.0000  plane waves:    3753
 k-point  2 :   0.2500-0.0000 0.0000  plane waves:    3753
 k-point  3 :   0.5000-0.0000 0.0000  plane waves:    3772
 k-point  4 :   0.0000 0.1667 0.0000  plane waves:    3755
 k-point  5 :   0.2500 0.1667 0.0000  plane waves:    3757
 k-point  6 :   0.5000 0.1667 0.0000  plane waves:    3766
 k-point  7 :  -0.2500 0.1667 0.0000  plane waves:    3754
 k-point  8 :   0.0000 0.3333 0.0000  plane waves:    3765
 k-point  9 :   0.2500 0.3333 0.0000  plane waves:    3743
 k-point 10 :   0.5000 0.3333 0.0000  plane waves:    3738
 k-point 11 :  -0.2500 0.3333 0.0000  plane waves:    3751
 k-point 12 :   0.0000 0.5000 0.0000  plane waves:    3760
 k-point 13 :   0.2500 0.5000 0.0000  plane waves:    3748
 k-point 14 :   0.5000 0.5000 0.0000  plane waves:    3732
 k-point 15 :   0.0000 0.0000 0.1000  plane waves:    3749
 k-point 16 :   0.2500-0.0000 0.1000  plane waves:    3753
 k-point 17 :   0.5000-0.0000 0.1000  plane waves:    3753
 k-point 18 :  -0.2500 0.0000 0.1000  plane waves:    3755
 k-point 19 :   0.0000 0.1667 0.1000  plane waves:    3751
 k-point 20 :   0.2500 0.1667 0.1000  plane waves:    3755
 k-point 21 :   0.5000 0.1667 0.1000  plane waves:    3753
 k-point 22 :  -0.2500 0.1667 0.1000  plane waves:    3754
 k-point 23 :   0.0000 0.3333 0.1000  plane waves:    3764
 k-point 24 :   0.2500 0.3333 0.1000  plane waves:    3760
 k-point 25 :   0.5000 0.3333 0.1000  plane waves:    3751
 k-point 26 :  -0.2500 0.3333 0.1000  plane waves:    3747
 k-point 27 :   0.0000 0.5000 0.1000  plane waves:    3761
 k-point 28 :   0.2500 0.5000 0.1000  plane waves:    3755
 k-point 29 :   0.5000 0.5000 0.1000  plane waves:    3738
 k-point 30 :  -0.2500 0.5000 0.1000  plane waves:    3748
 k-point 31 :   0.0000-0.3333 0.1000  plane waves:    3755
 k-point 32 :   0.2500-0.3333 0.1000  plane waves:    3760
 k-point 33 :   0.5000-0.3333 0.1000  plane waves:    3747
 k-point 34 :  -0.2500-0.3333 0.1000  plane waves:    3747
 k-point 35 :   0.0000-0.1667 0.1000  plane waves:    3758
 k-point 36 :   0.2500-0.1667 0.1000  plane waves:    3750
 k-point 37 :   0.5000-0.1667 0.1000  plane waves:    3751
 k-point 38 :  -0.2500-0.1667 0.1000  plane waves:    3757
 k-point 39 :   0.0000 0.0000 0.2000  plane waves:    3758
 k-point 40 :   0.2500-0.0000 0.2000  plane waves:    3757
 k-point 41 :   0.5000-0.0000 0.2000  plane waves:    3760
 k-point 42 :  -0.2500 0.0000 0.2000  plane waves:    3748
 k-point 43 :   0.0000 0.1667 0.2000  plane waves:    3760
 k-point 44 :   0.2500 0.1667 0.2000  plane waves:    3765
 k-point 45 :   0.5000 0.1667 0.2000  plane waves:    3755
 k-point 46 :  -0.2500 0.1667 0.2000  plane waves:    3756
 k-point 47 :   0.0000 0.3333 0.2000  plane waves:    3774
 k-point 48 :   0.2500 0.3333 0.2000  plane waves:    3759
 k-point 49 :   0.5000 0.3333 0.2000  plane waves:    3762
 k-point 50 :  -0.2500 0.3333 0.2000  plane waves:    3772
 k-point 51 :   0.0000 0.5000 0.2000  plane waves:    3769
 k-point 52 :   0.2500 0.5000 0.2000  plane waves:    3771
 k-point 53 :   0.5000 0.5000 0.2000  plane waves:    3774
 k-point 54 :  -0.2500 0.5000 0.2000  plane waves:    3766
 k-point 55 :   0.0000-0.3333 0.2000  plane waves:    3767
 k-point 56 :   0.2500-0.3333 0.2000  plane waves:    3781
 k-point 57 :   0.5000-0.3333 0.2000  plane waves:    3768
 k-point 58 :  -0.2500-0.3333 0.2000  plane waves:    3766
 k-point 59 :   0.0000-0.1667 0.2000  plane waves:    3764
 k-point 60 :   0.2500-0.1667 0.2000  plane waves:    3764
 k-point 61 :   0.5000-0.1667 0.2000  plane waves:    3763
 k-point 62 :  -0.2500-0.1667 0.2000  plane waves:    3760
 k-point 63 :   0.0000 0.0000 0.3000  plane waves:    3754
 k-point 64 :   0.2500-0.0000 0.3000  plane waves:    3768
 k-point 65 :   0.5000-0.0000 0.3000  plane waves:    3764
 k-point 66 :  -0.2500 0.0000 0.3000  plane waves:    3770
 k-point 67 :   0.0000 0.1667 0.3000  plane waves:    3762
 k-point 68 :   0.2500 0.1667 0.3000  plane waves:    3768
 k-point 69 :   0.5000 0.1667 0.3000  plane waves:    3777
 k-point 70 :  -0.2500 0.1667 0.3000  plane waves:    3761
 k-point 71 :   0.0000 0.3333 0.3000  plane waves:    3775
 k-point 72 :   0.2500 0.3333 0.3000  plane waves:    3780
 k-point 73 :   0.5000 0.3333 0.3000  plane waves:    3776
 k-point 74 :  -0.2500 0.3333 0.3000  plane waves:    3777
 k-point 75 :   0.0000 0.5000 0.3000  plane waves:    3780
 k-point 76 :   0.2500 0.5000 0.3000  plane waves:    3787
 k-point 77 :   0.5000 0.5000 0.3000  plane waves:    3784
 k-point 78 :  -0.2500 0.5000 0.3000  plane waves:    3773
 k-point 79 :   0.0000-0.3333 0.3000  plane waves:    3780
 k-point 80 :   0.2500-0.3333 0.3000  plane waves:    3787
 k-point 81 :   0.5000-0.3333 0.3000  plane waves:    3776
 k-point 82 :  -0.2500-0.3333 0.3000  plane waves:    3778
 k-point 83 :   0.0000-0.1667 0.3000  plane waves:    3782
 k-point 84 :   0.2500-0.1667 0.3000  plane waves:    3770
 k-point 85 :   0.5000-0.1667 0.3000  plane waves:    3769
 k-point 86 :  -0.2500-0.1667 0.3000  plane waves:    3774
 k-point 87 :   0.0000 0.0000 0.4000  plane waves:    3764
 k-point 88 :   0.2500-0.0000 0.4000  plane waves:    3766
 k-point 89 :   0.5000-0.0000 0.4000  plane waves:    3766
 k-point 90 :  -0.2500 0.0000 0.4000  plane waves:    3765
 k-point 91 :   0.0000 0.1667 0.4000  plane waves:    3772
 k-point 92 :   0.2500 0.1667 0.4000  plane waves:    3772
 k-point 93 :   0.5000 0.1667 0.4000  plane waves:    3773
 k-point 94 :  -0.2500 0.1667 0.4000  plane waves:    3779
 k-point 95 :   0.0000 0.3333 0.4000  plane waves:    3786
 k-point 96 :   0.2500 0.3333 0.4000  plane waves:    3790
 k-point 97 :   0.5000 0.3333 0.4000  plane waves:    3780
 k-point 98 :  -0.2500 0.3333 0.4000  plane waves:    3780
 k-point 99 :   0.0000 0.5000 0.4000  plane waves:    3781
 k-point ** :   0.2500 0.5000 0.4000  plane waves:    3796
 k-point ** :   0.5000 0.5000 0.4000  plane waves:    3786
 k-point ** :  -0.2500 0.5000 0.4000  plane waves:    3791
 k-point ** :   0.0000-0.3333 0.4000  plane waves:    3769
 k-point ** :   0.2500-0.3333 0.4000  plane waves:    3782
 k-point ** :   0.5000-0.3333 0.4000  plane waves:    3787
 k-point ** :  -0.2500-0.3333 0.4000  plane waves:    3779
 k-point ** :   0.0000-0.1667 0.4000  plane waves:    3780
 k-point ** :   0.2500-0.1667 0.4000  plane waves:    3776
 k-point ** :   0.5000-0.1667 0.4000  plane waves:    3775
 k-point ** :  -0.2500-0.1667 0.4000  plane waves:    3774
 k-point ** :   0.0000 0.0000 0.5000  plane waves:    3772
 k-point ** :   0.2500-0.0000 0.5000  plane waves:    3771
 k-point ** :   0.5000-0.0000 0.5000  plane waves:    3760
 k-point ** :   0.0000 0.1667 0.5000  plane waves:    3780
 k-point ** :   0.2500 0.1667 0.5000  plane waves:    3778
 k-point ** :   0.5000 0.1667 0.5000  plane waves:    3784
 k-point ** :  -0.2500 0.1667 0.5000  plane waves:    3771
 k-point ** :   0.0000 0.3333 0.5000  plane waves:    3789
 k-point ** :   0.2500 0.3333 0.5000  plane waves:    3782
 k-point ** :   0.5000 0.3333 0.5000  plane waves:    3790
 k-point ** :  -0.2500 0.3333 0.5000  plane waves:    3780
 k-point ** :   0.0000 0.5000 0.5000  plane waves:    3790
 k-point ** :   0.2500 0.5000 0.5000  plane waves:    3794
 k-point ** :   0.5000 0.5000 0.5000  plane waves:    3782

 maximum and minimum number of plane-waves per node :       980      897

 maximum number of plane-waves:      3796
 maximum index in each direction: 
   IXMAX=   15   IYMAX=   10   IZMAX=    5
   IXMIN=  -16   IYMIN=  -10   IZMIN=   -6


 parallel 3D FFT for wavefunctions:
    minimum data exchange during FFTs selected (reduces bandwidth)
 parallel 3D FFT for charge:
    minimum data exchange during FFTs selected (reduces bandwidth)


 total amount of memory used by VASP MPI-rank0    89019. kBytes
=======================================================================

   base      :      30000. kBytes
   nonl-proj :      15421. kBytes
   fftplans  :       2276. kBytes
   grid      :       2259. kBytes
   one-center:         18. kBytes
   wavefun   :      39045. kBytes
 
     INWAV:  cpu time    1.9607: real time    2.0625
 Broyden mixing: mesh for mixing (old mesh)
   NGX = 31   NGY = 19   NGZ = 11
  (NGX  = 90   NGY  = 56   NGZ  = 36)
  gives a total of   6479 points

 charge density for first step will be calculated from the start-wavefunctions


--------------------------------------------------------------------------------------------------------


 Maximum index for augmentation-charges         3121 (set IRDMAX)


--------------------------------------------------------------------------------------------------------


 initial charge from wavefunction
 First call to EWALD:  gamma=   0.354
 Maximum number of real-space cells 2x 3x 4
 Maximum number of reciprocal cells 4x 3x 2

    FEWALD:  cpu time    0.0020: real time    0.0015


--------------------------------------- Iteration      1(   1)  ---------------------------------------


    POTLOK:  cpu time    0.0190: real time    0.0188
    SETDIJ:  cpu time    0.2670: real time    0.2675
     EDDAV:  cpu time    7.6348: real time    7.6604
       DOS:  cpu time    0.0040: real time    0.0050
    CHARGE:  cpu time    0.2930: real time    0.2939
    MIXING:  cpu time    0.0020: real time    0.0009
    --------------------------------------------
      LOOP:  cpu time    8.2197: real time    8.2466

 eigenvalue-minimisations  : 23776
 total energy-change (2. order) :-0.7311817E+02  (-0.3347993E+02)
 number of electron      48.0000000 magnetization      -0.0000000
 augmentation part       -0.7434279 magnetization      -0.0000000

 Broyden mixing:
  rms(total) = 0.20676E+01    rms(broyden)= 0.20675E+01
  rms(prec ) = 0.21617E+01
  weight for this iteration     100.00

 Free energy of the ion-electron system (eV)
  ---------------------------------------------------
  alpha Z        PSCENC =        66.60201156
  Ewald energy   TEWEN  =     -1673.23956118
  -Hartree energ DENC   =      -204.28218542
  -exchange      EXHF   =         0.00000000
  -V(xc)+E(xc)   XCENC  =        31.21059225
  PAW double counting   =     15961.87669943   -15860.52626363
  entropy T*S    EENTRO =        -0.00016305
  eigenvalues    EBANDS =       103.94443604
  atomic energy  EATOM  =      1501.29626343
  Solvation  Ediel_sol  =         0.00000000
  ---------------------------------------------------
  free energy    TOTEN  =       -73.11817057 eV

  energy without entropy =      -73.11800752  energy(sigma->0) =      -73.11808904


--------------------------------------------------------------------------------------------------------




--------------------------------------- Iteration      1(   2)  ---------------------------------------


    POTLOK:  cpu time    0.0160: real time    0.0158
    SETDIJ:  cpu time    0.2680: real time    0.2677
     EDDAV:  cpu time    7.9028: real time    7.9339
       DOS:  cpu time    0.0030: real time    0.0024
    CHARGE:  cpu time    0.2890: real time    0.2993
    MIXING:  cpu time    0.0020: real time    0.0008
    --------------------------------------------
      LOOP:  cpu time    8.4807: real time    8.5199

 eigenvalue-minimisations  : 24800
 total energy-change (2. order) :-0.8939118E+01  (-0.9450739E+01)
 number of electron      48.0000000 magnetization      -0.0000000
 augmentation part       -0.7637113 magnetization      -0.0000000

 Broyden mixing:
  rms(total) = 0.23247E+01    rms(broyden)= 0.23247E+01
  rms(prec ) = 0.23464E+01
  weight for this iteration     100.00

 eigenvalues of (default mixing * dielectric matrix)
  average eigenvalue GAMMA=   0.0193
  0.0193

 Free energy of the ion-electron system (eV)
  ---------------------------------------------------
  alpha Z        PSCENC =        66.60201156
  Ewald energy   TEWEN  =     -1673.23956118
  -Hartree energ DENC   =      -210.22254775
  -exchange      EXHF   =         0.00000000
  -V(xc)+E(xc)   XCENC  =        31.53826649
  PAW double counting   =     13867.62225840   -13766.14348317
  entropy T*S    EENTRO =        -0.00000000
  eigenvalues    EBANDS =       100.48950378
  atomic energy  EATOM  =      1501.29626343
  Solvation  Ediel_sol  =         0.00000000
  ---------------------------------------------------
  free energy    TOTEN  =       -82.05728843 eV

  energy without entropy =      -82.05728843  energy(sigma->0) =      -82.05728843


--------------------------------------------------------------------------------------------------------




--------------------------------------- Iteration      1(   3)  ---------------------------------------


    POTLOK:  cpu time    0.0150: real time    0.0158
    SETDIJ:  cpu time    0.2680: real time    0.2677
     EDDAV:  cpu time    7.8518: real time    7.8665
       DOS:  cpu time    0.0020: real time    0.0026
    CHARGE:  cpu time    0.2940: real time    0.2946
    MIXING:  cpu time    0.0020: real time    0.0006
    --------------------------------------------
      LOOP:  cpu time    8.4327: real time    8.4478

 eigenvalue-minimisations  : 24744
 total energy-change (2. order) :-0.1584834E+00  (-0.2395002E+00)
 number of electron      48.0000000 magnetization      -0.0000000
 augmentation part       -0.7773852 magnetization      -0.0000000

 Broyden mixing:
  rms(total) = 0.21953E+01    rms(broyden)= 0.21953E+01
  rms(prec ) = 0.22125E+01
  weight for this iteration     100.00

 eigenvalues of (default mixing * dielectric matrix)
  average eigenvalue GAMMA=   1.3339
  1.3339  1.3339

 Free energy of the ion-electron system (eV)
  ---------------------------------------------------
  alpha Z        PSCENC =        66.60201156
  Ewald energy   TEWEN  =     -1673.23956118
  -Hartree energ DENC   =      -211.79496158
  -exchange      EXHF   =         0.00000000
  -V(xc)+E(xc)   XCENC  =        31.64221190
  PAW double counting   =     12991.18030985   -12889.72826265
  entropy T*S    EENTRO =        -0.00000000
  eigenvalues    EBANDS =       101.82621679
  atomic energy  EATOM  =      1501.29626343
  Solvation  Ediel_sol  =         0.00000000
  ---------------------------------------------------
  free energy    TOTEN  =       -82.21577187 eV

  energy without entropy =      -82.21577187  energy(sigma->0) =      -82.21577187


--------------------------------------------------------------------------------------------------------




--------------------------------------- Iteration      1(   4)  ---------------------------------------


    POTLOK:  cpu time    0.0150: real time    0.0158
    SETDIJ:  cpu time    0.2690: real time    0.2684
     EDDAV:  cpu time    7.7468: real time    7.7702
       DOS:  cpu time    0.0050: real time    0.0047
    CHARGE:  cpu time    0.2940: real time    0.2951
    MIXING:  cpu time    0.0020: real time    0.0006
    --------------------------------------------
      LOOP:  cpu time    8.3317: real time    8.3549

 eigenvalue-minimisations  : 24320
 total energy-change (2. order) :-0.1315326E+00  (-0.1119532E+00)
 number of electron      48.0000000 magnetization       0.0000000
 augmentation part       -0.8123437 magnetization      -0.0000000

 Broyden mixing:
  rms(total) = 0.97343E+00    rms(broyden)= 0.97342E+00
  rms(prec ) = 0.10566E+01
  weight for this iteration     100.00

 eigenvalues of (default mixing * dielectric matrix)
  average eigenvalue GAMMA=   1.4518
  2.4756  1.0185  0.8615

 Free energy of the ion-electron system (eV)
  ---------------------------------------------------
  alpha Z        PSCENC =        66.60201156
  Ewald energy   TEWEN  =     -1673.23956118
  -Hartree energ DENC   =      -217.78403270
  -exchange      EXHF   =         0.00000000
  -V(xc)+E(xc)   XCENC  =        32.07938484
  PAW double counting   =      7568.88509890    -7467.66404818
  entropy T*S    EENTRO =        -0.00009863
  eigenvalues    EBANDS =       107.47767747
  atomic energy  EATOM  =      1501.29626343
  Solvation  Ediel_sol  =         0.00000000
  ---------------------------------------------------
  free energy    TOTEN  =       -82.34730449 eV

  energy without entropy =      -82.34720586  energy(sigma->0) =      -82.34725517


--------------------------------------------------------------------------------------------------------




--------------------------------------- Iteration      1(   5)  ---------------------------------------


    POTLOK:  cpu time    0.0150: real time    0.0158
    SETDIJ:  cpu time    0.2680: real time    0.2681
     EDDAV:  cpu time    7.7958: real time    7.8229
       DOS:  cpu time    0.0050: real time    0.0048
    CHARGE:  cpu time    0.3020: real time    0.3087
    MIXING:  cpu time    0.0020: real time    0.0007
    --------------------------------------------
      LOOP:  cpu time    8.3877: real time    8.4211

 eigenvalue-minimisations  : 24560
 total energy-change (2. order) : 0.1534282E+00  (-0.4634589E-01)
 number of electron      48.0000000 magnetization       0.0000000
 augmentation part       -0.8363927 magnetization      -0.0000000

 Broyden mixing:
  rms(total) = 0.59110E+00    rms(broyden)= 0.59110E+00
  rms(prec ) = 0.64348E+00
  weight for this iteration     100.00

 eigenvalues of (default mixing * dielectric matrix)
  average eigenvalue GAMMA=   1.2636
  2.3678  1.0911  0.7978  0.7978

 Free energy of the ion-electron system (eV)
  ---------------------------------------------------
  alpha Z        PSCENC =        66.60201156
  Ewald energy   TEWEN  =     -1673.23956118
  -Hartree energ DENC   =      -222.83118588
  -exchange      EXHF   =         0.00000000
  -V(xc)+E(xc)   XCENC  =        32.39406066
  PAW double counting   =      4117.31517881    -4016.24619613
  entropy T*S    EENTRO =        -0.00013423
  eigenvalues    EBANDS =       112.51568668
  atomic energy  EATOM  =      1501.29626343
  Solvation  Ediel_sol  =         0.00000000
  ---------------------------------------------------
  free energy    TOTEN  =       -82.19387627 eV

  energy without entropy =      -82.19374204  energy(sigma->0) =      -82.19380916


--------------------------------------------------------------------------------------------------------




--------------------------------------- Iteration      1(   6)  ---------------------------------------


    POTLOK:  cpu time    0.0150: real time    0.0158
    SETDIJ:  cpu time    0.2680: real time    0.2678
     EDDAV:  cpu time    7.4359: real time    7.4513
       DOS:  cpu time    0.0050: real time    0.0048
    CHARGE:  cpu time    0.2950: real time    0.2953
    MIXING:  cpu time    0.0010: real time    0.0007
    --------------------------------------------
      LOOP:  cpu time    8.0198: real time    8.0357

 eigenvalue-minimisations  : 22816
 total energy-change (2. order) : 0.9080672E-01  (-0.2417318E-01)
 number of electron      48.0000000 magnetization      -0.0000000
 augmentation part       -0.8353723 magnetization      -0.0000000

 Broyden mixing:
  rms(total) = 0.29127E+00    rms(broyden)= 0.29127E+00
  rms(prec ) = 0.32337E+00
  weight for this iteration     100.00

 eigenvalues of (default mixing * dielectric matrix)
  average eigenvalue GAMMA=   1.3014
  2.1080  1.0774  1.0774  1.4118  0.8327

 Free energy of the ion-electron system (eV)
  ---------------------------------------------------
  alpha Z        PSCENC =        66.60201156
  Ewald energy   TEWEN  =     -1673.23956118
  -Hartree energ DENC   =      -220.76932380
  -exchange      EXHF   =         0.00000000
  -V(xc)+E(xc)   XCENC  =        32.26231626
  PAW double counting   =      4817.31022001    -4716.18678710
  entropy T*S    EENTRO =        -0.00011487
  eigenvalues    EBANDS =       110.62190614
  atomic energy  EATOM  =      1501.29626343
  Solvation  Ediel_sol  =         0.00000000
  ---------------------------------------------------
  free energy    TOTEN  =       -82.10306955 eV

  energy without entropy =      -82.10295468  energy(sigma->0) =      -82.10301211


--------------------------------------------------------------------------------------------------------




--------------------------------------- Iteration      1(   7)  ---------------------------------------


    POTLOK:  cpu time    0.0160: real time    0.0162
    SETDIJ:  cpu time    0.2670: real time    0.2672
     EDDAV:  cpu time    7.8828: real time    7.9131
       DOS:  cpu time    0.0050: real time    0.0045
    CHARGE:  cpu time    0.2950: real time    0.2956
    MIXING:  cpu time    0.0010: real time    0.0008
    --------------------------------------------
      LOOP:  cpu time    8.4667: real time    8.4975

 eigenvalue-minimisations  : 24560
 total energy-change (2. order) : 0.3879513E-01  (-0.8874428E-02)
 number of electron      48.0000000 magnetization      -0.0000000
 augmentation part       -0.8242913 magnetization      -0.0000000

 Broyden mixing:
  rms(total) = 0.12050E+00    rms(broyden)= 0.12050E+00
  rms(prec ) = 0.13301E+00
  weight for this iteration     100.00

 eigenvalues of (default mixing * dielectric matrix)
  average eigenvalue GAMMA=   1.2973
  2.4731  1.3315  1.3315  1.0285  0.8095  0.8095

 Free energy of the ion-electron system (eV)
  ---------------------------------------------------
  alpha Z        PSCENC =        66.60201156
  Ewald energy   TEWEN  =     -1673.23956118
  -Hartree energ DENC   =      -218.95223071
  -exchange      EXHF   =         0.00000000
  -V(xc)+E(xc)   XCENC  =        32.14068064
  PAW double counting   =      5151.91784666    -5050.74314525
  entropy T*S    EENTRO =        -0.00004366
  eigenvalues    EBANDS =       108.91390409
  atomic energy  EATOM  =      1501.29626343
  Solvation  Ediel_sol  =         0.00000000
  ---------------------------------------------------
  free energy    TOTEN  =       -82.06427442 eV

  energy without entropy =      -82.06423076  energy(sigma->0) =      -82.06425259


--------------------------------------------------------------------------------------------------------




--------------------------------------- Iteration      1(   8)  ---------------------------------------


    POTLOK:  cpu time    0.0160: real time    0.0160
    SETDIJ:  cpu time    0.2680: real time    0.2683
     EDDAV:  cpu time    7.7438: real time    7.7625
       DOS:  cpu time    0.0050: real time    0.0048
    CHARGE:  cpu time    0.2920: real time    0.3009
    MIXING:  cpu time    0.0010: real time    0.0008
    --------------------------------------------
      LOOP:  cpu time    8.3257: real time    8.3532

 eigenvalue-minimisations  : 23928
 total energy-change (2. order) : 0.1314336E-02  (-0.7138157E-03)
 number of electron      48.0000000 magnetization       0.0000000
 augmentation part       -0.8280486 magnetization      -0.0000000

 Broyden mixing:
  rms(total) = 0.11673E+00    rms(broyden)= 0.11673E+00
  rms(prec ) = 0.12607E+00
  weight for this iteration     100.00

 eigenvalues of (default mixing * dielectric matrix)
  average eigenvalue GAMMA=   1.1892
  2.4625  1.2562  1.2562  1.0438  0.8236  0.8236  0.6586

 Free energy of the ion-electron system (eV)
  ---------------------------------------------------
  alpha Z        PSCENC =        66.60201156
  Ewald energy   TEWEN  =     -1673.23956118
  -Hartree energ DENC   =      -219.53756065
  -exchange      EXHF   =         0.00000000
  -V(xc)+E(xc)   XCENC  =        32.17944714
  PAW double counting   =      5107.90563001    -5006.73088322
  entropy T*S    EENTRO =        -0.00004989
  eigenvalues    EBANDS =       109.46174271
  atomic energy  EATOM  =      1501.29626343
  Solvation  Ediel_sol  =         0.00000000
  ---------------------------------------------------
  free energy    TOTEN  =       -82.06296008 eV

  energy without entropy =      -82.06291019  energy(sigma->0) =      -82.06293513


--------------------------------------------------------------------------------------------------------




--------------------------------------- Iteration      1(   9)  ---------------------------------------


    POTLOK:  cpu time    0.0160: real time    0.0158
    SETDIJ:  cpu time    0.2670: real time    0.2677
     EDDAV:  cpu time    7.6918: real time    7.7209
       DOS:  cpu time    0.0050: real time    0.0048
    CHARGE:  cpu time    0.3070: real time    0.3078
    MIXING:  cpu time    0.0020: real time    0.0008
    --------------------------------------------
      LOOP:  cpu time    8.2887: real time    8.3179

 eigenvalue-minimisations  : 23872
 total energy-change (2. order) :-0.1341678E-02  (-0.8763264E-04)
 number of electron      48.0000000 magnetization      -0.0000000
 augmentation part       -0.8291813 magnetization      -0.0000000

 Broyden mixing:
  rms(total) = 0.12637E+00    rms(broyden)= 0.12637E+00
  rms(prec ) = 0.13669E+00
  weight for this iteration     100.00

 eigenvalues of (default mixing * dielectric matrix)
  average eigenvalue GAMMA=   1.1627
  2.4695  1.2304  1.2304  1.0379  0.8102  0.8102  0.8565  0.8565

 Free energy of the ion-electron system (eV)
  ---------------------------------------------------
  alpha Z        PSCENC =        66.60201156
  Ewald energy   TEWEN  =     -1673.23956118
  -Hartree energ DENC   =      -219.61219005
  -exchange      EXHF   =         0.00000000
  -V(xc)+E(xc)   XCENC  =        32.18394748
  PAW double counting   =      5078.73991843    -4977.56821055
  entropy T*S    EENTRO =        -0.00005378
  eigenvalues    EBANDS =       109.53357290
  atomic energy  EATOM  =      1501.29626343
  Solvation  Ediel_sol  =         0.00000000
  ---------------------------------------------------
  free energy    TOTEN  =       -82.06430176 eV

  energy without entropy =      -82.06424797  energy(sigma->0) =      -82.06427487


--------------------------------------------------------------------------------------------------------




--------------------------------------- Iteration      1(  10)  ---------------------------------------


    POTLOK:  cpu time    0.0150: real time    0.0158
    SETDIJ:  cpu time    0.2680: real time    0.2678
     EDDAV:  cpu time    7.5549: real time    7.5770
       DOS:  cpu time    0.0050: real time    0.0044
    CHARGE:  cpu time    0.2950: real time    0.2956
    MIXING:  cpu time    0.0010: real time    0.0009
    --------------------------------------------
      LOOP:  cpu time    8.1388: real time    8.1614

 eigenvalue-minimisations  : 23296
 total energy-change (2. order) : 0.3013417E-02  (-0.1369574E-03)
 number of electron      48.0000000 magnetization      -0.0000000
 augmentation part       -0.8293067 magnetization      -0.0000000

 Broyden mixing:
  rms(total) = 0.90262E-01    rms(broyden)= 0.90262E-01
  rms(prec ) = 0.98162E-01
  weight for this iteration     100.00

 eigenvalues of (default mixing * dielectric matrix)
  average eigenvalue GAMMA=   1.3392
  2.4758  2.0382  2.0382  1.0781  1.0781  1.0227  0.9016  0.9016  0.5182

 Free energy of the ion-electron system (eV)
  ---------------------------------------------------
  alpha Z        PSCENC =        66.60201156
  Ewald energy   TEWEN  =     -1673.23956118
  -Hartree energ DENC   =      -219.50104821
  -exchange      EXHF   =         0.00000000
  -V(xc)+E(xc)   XCENC  =        32.18014161
  PAW double counting   =      5169.87225727    -5068.69543467
  entropy T*S    EENTRO =        -0.00004606
  eigenvalues    EBANDS =       109.42412790
  atomic energy  EATOM  =      1501.29626343
  Solvation  Ediel_sol  =         0.00000000
  ---------------------------------------------------
  free energy    TOTEN  =       -82.06128834 eV

  energy without entropy =      -82.06124228  energy(sigma->0) =      -82.06126531


--------------------------------------------------------------------------------------------------------




--------------------------------------- Iteration      1(  11)  ---------------------------------------


    POTLOK:  cpu time    0.0160: real time    0.0160
    SETDIJ:  cpu time    0.2680: real time    0.2676
     EDDAV:  cpu time    7.6138: real time    7.6377
       DOS:  cpu time    0.0050: real time    0.0044
    CHARGE:  cpu time    0.2950: real time    0.2956
    MIXING:  cpu time    0.0010: real time    0.0009
    --------------------------------------------
      LOOP:  cpu time    8.1988: real time    8.2222

 eigenvalue-minimisations  : 23616
 total energy-change (2. order) : 0.3184596E-02  (-0.8680463E-03)
 number of electron      48.0000000 magnetization       0.0000000
 augmentation part       -0.8284400 magnetization       0.0000000

 Broyden mixing:
  rms(total) = 0.14359E-01    rms(broyden)= 0.14354E-01
  rms(prec ) = 0.17663E-01
  weight for this iteration     100.00

 eigenvalues of (default mixing * dielectric matrix)
  average eigenvalue GAMMA=   1.3469
  2.4589  2.2327  2.2327  1.0088  1.0088  0.9789  0.9789  0.9784  0.7954  0.7954

 Free energy of the ion-electron system (eV)
  ---------------------------------------------------
  alpha Z        PSCENC =        66.60201156
  Ewald energy   TEWEN  =     -1673.23956118
  -Hartree energ DENC   =      -219.11577639
  -exchange      EXHF   =         0.00000000
  -V(xc)+E(xc)   XCENC  =        32.16149141
  PAW double counting   =      5392.58735006    -5291.39635113
  entropy T*S    EENTRO =        -0.00002602
  eigenvalues    EBANDS =       109.04649451
  atomic energy  EATOM  =      1501.29626343
  Solvation  Ediel_sol  =         0.00000000
  ---------------------------------------------------
  free energy    TOTEN  =       -82.05810375 eV

  energy without entropy =      -82.05807772  energy(sigma->0) =      -82.05809073


--------------------------------------------------------------------------------------------------------




--------------------------------------- Iteration      1(  12)  ---------------------------------------


    POTLOK:  cpu time    0.0160: real time    0.0158
    SETDIJ:  cpu time    0.2600: real time    0.2678
     EDDAV:  cpu time    7.7948: real time    7.8107
       DOS:  cpu time    0.0050: real time    0.0045
    CHARGE:  cpu time    0.2950: real time    0.2955
    MIXING:  cpu time    0.0010: real time    0.0011
    --------------------------------------------
      LOOP:  cpu time    8.3717: real time    8.3954

 eigenvalue-minimisations  : 24392
 total energy-change (2. order) : 0.6853874E-04  (-0.7029522E-04)
 number of electron      48.0000000 magnetization       0.0000000
 augmentation part       -0.8277261 magnetization       0.0000000

 Broyden mixing:
  rms(total) = 0.12337E-01    rms(broyden)= 0.12336E-01
  rms(prec ) = 0.14411E-01
  weight for this iteration     100.00

 eigenvalues of (default mixing * dielectric matrix)
  average eigenvalue GAMMA=   1.3222
  2.3787  2.3787  2.4244  0.9757  0.9757  1.0423  1.0423  1.0549  0.8689  0.8689
  0.5333

 Free energy of the ion-electron system (eV)
  ---------------------------------------------------
  alpha Z        PSCENC =        66.60201156
  Ewald energy   TEWEN  =     -1673.23956118
  -Hartree energ DENC   =      -219.00868378
  -exchange      EXHF   =         0.00000000
  -V(xc)+E(xc)   XCENC  =        32.15454866
  PAW double counting   =      5422.40165356    -5321.20716338
  entropy T*S    EENTRO =        -0.00002302
  eigenvalues    EBANDS =       108.94291894
  atomic energy  EATOM  =      1501.29626343
  Solvation  Ediel_sol  =         0.00000000
  ---------------------------------------------------
  free energy    TOTEN  =       -82.05803521 eV

  energy without entropy =      -82.05801219  energy(sigma->0) =      -82.05802370


--------------------------------------------------------------------------------------------------------




--------------------------------------- Iteration      1(  13)  ---------------------------------------


    POTLOK:  cpu time    0.0160: real time    0.0158
    SETDIJ:  cpu time    0.2680: real time    0.2680
     EDDAV:  cpu time    7.6618: real time    7.7155
       DOS:  cpu time    0.0050: real time    0.0047
    CHARGE:  cpu time    0.2950: real time    0.2954
    MIXING:  cpu time    0.0010: real time    0.0011
    --------------------------------------------
      LOOP:  cpu time    8.2467: real time    8.3005

 eigenvalue-minimisations  : 23848
 total energy-change (2. order) : 0.3954427E-04  (-0.2916246E-05)
 number of electron      48.0000000 magnetization       0.0000000
 augmentation part       -0.8274862 magnetization       0.0000000

 Broyden mixing:
  rms(total) = 0.95760E-02    rms(broyden)= 0.95760E-02
  rms(prec ) = 0.11384E-01
  weight for this iteration     100.00

 eigenvalues of (default mixing * dielectric matrix)
  average eigenvalue GAMMA=   1.3477
  2.5536  2.5536  2.4846  1.1944  1.1944  1.0736  1.0736  1.0050  0.8481  0.8481
  0.6715  0.6715

 Free energy of the ion-electron system (eV)
  ---------------------------------------------------
  alpha Z        PSCENC =        66.60201156
  Ewald energy   TEWEN  =     -1673.23956118
  -Hartree energ DENC   =      -218.99599118
  -exchange      EXHF   =         0.00000000
  -V(xc)+E(xc)   XCENC  =        32.15325985
  PAW double counting   =      5416.38460605    -5315.18976935
  entropy T*S    EENTRO =        -0.00002277
  eigenvalues    EBANDS =       108.93120792
  atomic energy  EATOM  =      1501.29626343
  Solvation  Ediel_sol  =         0.00000000
  ---------------------------------------------------
  free energy    TOTEN  =       -82.05799566 eV

  energy without entropy =      -82.05797290  energy(sigma->0) =      -82.05798428


--------------------------------------------------------------------------------------------------------




--------------------------------------- Iteration      1(  14)  ---------------------------------------


    POTLOK:  cpu time    0.0160: real time    0.0158
[...]
     17       4.7609      1.00000
     18       5.3098      1.00000
     19       5.6222      1.00000
     20       5.8305      1.00000
     21       6.5321      1.00000
     22       6.9812      1.00000
     23       7.7597      1.00000
     24       8.1419      1.00000
     25      10.0054      0.00000
     26      10.5422      0.00000
     27      11.2716      0.00000
     28      11.7645      0.00000
     29      12.0277      0.00000
     30      12.2812      0.00000
     31      12.8085      0.00000
     32      13.1331      0.00000
     33      13.7087      0.00000
     34      14.2524      0.00000
     35      14.8201      0.00000
     36      15.4471      0.00000
     37      15.8239      0.00000
     38      16.2427      0.00000
     39      16.6670      0.00000
     40      17.3881      0.00000

 k-point   121 :      -0.2500    0.3333    0.5000
  band No.  band energies     occupation 
      1      -5.3515      1.00000
      2      -4.7862      1.00000
      3      -3.5195      1.00000
      4      -2.7724      1.00000
      5      -2.0734      1.00000
      6      -1.6130      1.00000
      7      -0.8324      1.00000
      8      -0.3501      1.00000
      9       0.5025      1.00000
     10       0.9212      1.00000
     11       1.4232      1.00000
     12       2.3586      1.00000
     13       2.7922      1.00000
     14       3.5080      1.00000
     15       3.8893      1.00000
     16       4.1411      1.00000
     17       4.8076      1.00000
     18       5.0823      1.00000
     19       5.6660      1.00000
     20       5.9923      1.00000
     21       6.2692      1.00000
     22       6.8657      1.00000
     23       7.8465      1.00000
     24       8.1475      1.00000
     25      10.1318      0.00000
     26      10.6715      0.00000
     27      11.2431      0.00000
     28      11.5819      0.00000
     29      11.9666      0.00000
     30      12.2101      0.00000
     31      12.9025      0.00000
     32      13.1681      0.00000
     33      13.8762      0.00000
     34      14.4073      0.00000
     35      14.8930      0.00000
     36      15.1540      0.00000
     37      15.5275      0.00000
     38      16.3204      0.00000
     39      16.7956      0.00000
     40      17.3426      0.00000

 k-point   122 :       0.0000    0.5000    0.5000
  band No.  band energies     occupation 
      1      -5.2352      1.00000
      2      -4.7555      1.00000
      3      -3.4272      1.00000
      4      -3.0397      1.00000
      5      -2.1662      1.00000
      6      -1.3690      1.00000
      7      -0.9158      1.00000
      8      -0.4474      1.00000
      9       0.3309      1.00000
     10       0.6213      1.00000
     11       1.0575      1.00000
     12       2.3419      1.00000
     13       3.0581      1.00000
     14       3.8858      1.00000
     15       3.9699      1.00000
     16       4.4640      1.00000
     17       4.7116      1.00000
     18       5.4688      1.00000
     19       5.6372      1.00000
     20       6.3105      1.00000
     21       6.3488      1.00000
     22       6.6898      1.00000
     23       8.0502      1.00000
     24       8.3617      1.00000
     25      10.0276      0.00000
     26      10.4586      0.00000
     27      11.2603      0.00000
     28      11.7070      0.00000
     29      11.8297      0.00000
     30      11.9550      0.00000
     31      12.9585      0.00000
     32      13.5236      0.00000
     33      13.6360      0.00000
     34      14.0855      0.00000
     35      14.7882      0.00000
     36      14.9079      0.00000
     37      15.3455      0.00000
     38      15.9731      0.00000
     39      16.2089      0.00000
     40      16.7897      0.00000

 k-point   123 :       0.2500    0.5000    0.5000
  band No.  band energies     occupation 
      1      -5.2381      1.00000
      2      -4.7551      1.00000
      3      -3.4458      1.00000
      4      -2.9901      1.00000
      5      -2.0796      1.00000
      6      -1.5149      1.00000
      7      -1.0678      1.00000
      8      -0.3766      1.00000
      9       0.2943      1.00000
     10       0.6852      1.00000
     11       1.4322      1.00000
     12       2.3715      1.00000
     13       2.7788      1.00000
     14       3.3803      1.00000
     15       4.2367      1.00000
     16       4.5029      1.00000
     17       4.8282      1.00000
     18       5.1520      1.00000
     19       5.9875      1.00000
     20       6.1116      1.00000
     21       6.5907      1.00000
     22       6.8224      1.00000
     23       8.0000      1.00000
     24       8.3178      1.00000
     25      10.0355      0.00000
     26      10.5971      0.00000
     27      11.0015      0.00000
     28      11.5789      0.00000
     29      11.9545      0.00000
     30      12.1455      0.00000
     31      12.6452      0.00000
     32      13.3889      0.00000
     33      13.6115      0.00000
     34      14.1635      0.00000
     35      14.7019      0.00000
     36      15.2381      0.00000
     37      15.3620      0.00000
     38      15.6965      0.00000
     39      16.4244      0.00000
     40      16.8345      0.00000

 k-point   124 :       0.5000    0.5000    0.5000
  band No.  band energies     occupation 
      1      -5.2409      1.00000
      2      -4.7547      1.00000
      3      -3.4640      1.00000
      4      -2.9347      1.00000
      5      -1.8938      1.00000
      6      -1.7730      1.00000
      7      -1.1708      1.00000
      8      -0.3940      1.00000
      9       0.4055      1.00000
     10       0.8192      1.00000
     11       1.5808      1.00000
     12       2.1783      1.00000
     13       2.9668      1.00000
     14       3.3163      1.00000
     15       3.8062      1.00000
     16       4.5221      1.00000
     17       4.5539      1.00000
     18       5.6286      1.00000
     19       5.7811      1.00000
     20       6.2268      1.00000
     21       6.8083      1.00000
     22       7.0103      1.00000
     23       7.9419      1.00000
     24       8.2151      1.00000
     25      10.0407      0.00000
     26      10.4063      0.00000
     27      10.9581      0.00000
     28      11.5927      0.00000
     29      11.9288      0.00000
     30      12.2908      0.00000
     31      12.8986      0.00000
     32      13.0961      0.00000
     33      13.6352      0.00000
     34      13.9032      0.00000
     35      14.5749      0.00000
     36      15.1179      0.00000
     37      15.4004      0.00000
     38      16.0888      0.00000
     39      16.7239      0.00000
     40      17.0359      0.00000


--------------------------------------------------------------------------------------------------------


 soft charge-density along one line, spin component           1
         0         1         2         3         4         5         6         7         8         9
 total charge-density along one line
 
 soft charge-density along one line, spin component           2
         0         1         2         3         4         5         6         7         8         9
 total charge-density along one line
 
 pseudopotential strength for first ion, spin component:           1
  9.462  12.566  -0.002   0.001  -0.002   0.004  -0.001   0.005
 12.566  16.687  -0.002   0.001  -0.003   0.005  -0.002   0.006
 -0.002  -0.002  -3.689  -0.000   0.001   7.230   0.000  -0.001
  0.001   0.001  -0.000  -3.693  -0.001   0.000   7.237   0.001
 -0.002  -0.003   0.001  -0.001  -3.690  -0.001   0.001   7.231
  0.004   0.005   7.230   0.000  -0.001 -16.265  -0.000   0.002
 -0.001  -0.002   0.000   7.237   0.001  -0.000 -16.280  -0.002
  0.005   0.006  -0.001   0.001   7.231   0.002  -0.002 -16.268
 pseudopotential strength for first ion, spin component:           2
  9.462  12.566  -0.002   0.001  -0.002   0.004  -0.001   0.005
 12.566  16.687  -0.002   0.001  -0.003   0.005  -0.002   0.006
 -0.002  -0.002  -3.689  -0.000   0.001   7.230   0.000  -0.001
  0.001   0.001  -0.000  -3.693  -0.001   0.000   7.237   0.001
 -0.002  -0.003   0.001  -0.001  -3.690  -0.001   0.001   7.231
  0.004   0.005   7.230   0.000  -0.001 -16.265  -0.000   0.002
 -0.001  -0.002   0.000   7.237   0.001  -0.000 -16.280  -0.002
  0.005   0.006  -0.001   0.001   7.231   0.002  -0.002 -16.268
 total augmentation occupancy for first ion, spin component:           1
  5.760  -2.265   0.037  -0.048   0.067   0.005  -0.007   0.010
 -2.265   0.974  -0.012   0.025  -0.028  -0.002   0.003  -0.004
  0.037  -0.012   1.445   0.016  -0.025   0.093   0.000  -0.004
 -0.048   0.025   0.016   1.375   0.015   0.000   0.109   0.003
  0.067  -0.028  -0.025   0.015   1.402  -0.004   0.003   0.096
  0.005  -0.002   0.093   0.000  -0.004   0.007  -0.000  -0.000
 -0.007   0.003   0.000   0.109   0.003  -0.000   0.009   0.000
  0.010  -0.004  -0.004   0.003   0.096  -0.000   0.000   0.007
 total augmentation occupancy for first ion, spin component:           2
 -0.000   0.000  -0.000   0.000   0.000  -0.000   0.000   0.000
  0.000  -0.000   0.000  -0.000  -0.000   0.000  -0.000  -0.000
 -0.000   0.000   0.000   0.000  -0.000  -0.000   0.000  -0.000
  0.000  -0.000   0.000   0.000   0.000   0.000   0.000   0.000
  0.000  -0.000  -0.000   0.000  -0.000  -0.000   0.000  -0.000
 -0.000   0.000  -0.000   0.000  -0.000  -0.000   0.000  -0.000
  0.000  -0.000   0.000   0.000   0.000   0.000   0.000   0.000
  0.000  -0.000  -0.000   0.000  -0.000  -0.000   0.000   0.000


------------------------ aborting loop because EDIFF is reached ----------------------------------------


 


 total charge     
 
# of ion       s       p       d       tot
------------------------------------------
    1        0.833   1.619   0.000   2.452
    2        0.840   1.696   0.000   2.535
    3        0.837   1.670   0.000   2.507
    4        0.854   1.520   0.000   2.373
    5        0.843   1.599   0.000   2.442
    6        0.864   1.655   0.000   2.520
    7        0.736   0.861   0.000   1.598
    8        0.722   0.975   0.000   1.697
    9        0.722   0.873   0.000   1.595
   10        0.722   0.956   0.000   1.677
   11        0.730   0.905   0.000   1.635
   12        0.747   0.916   0.000   1.663
--------------------------------------------------
tot          9.451  15.244   0.000  24.695
 


 magnetization (x)
 
# of ion       s       p       d       tot
------------------------------------------
    1       -0.000   0.000   0.000   0.000
    2       -0.000  -0.000   0.000  -0.000
    3        0.000  -0.000   0.000  -0.000
    4       -0.000  -0.000   0.000  -0.000
    5       -0.000  -0.000   0.000  -0.000
    6        0.000   0.000   0.000   0.000
    7        0.000   0.000   0.000   0.000
    8       -0.000   0.000   0.000   0.000
    9        0.000   0.000   0.000   0.000
   10       -0.000   0.000   0.000   0.000
   11        0.000   0.000   0.000   0.000
   12       -0.000  -0.000   0.000  -0.000
--------------------------------------------------
tot         -0.000   0.000   0.000   0.000
 
    CHARGE:  cpu time    0.2930: real time    0.2922
    FORLOC:  cpu time    0.0010: real time    0.0010
    FORNL :  cpu time    1.7067: real time    1.7159
    STRESS:  cpu time    2.6556: real time    2.6575
    FORCOR:  cpu time    0.0160: real time    0.0158
    FORHAR:  cpu time    0.0020: real time    0.0024
    MIXING:  cpu time    0.0010: real time    0.0013
    OFIELD:  cpu time    0.0000: real time    0.0001

  FORCE on cell =-STRESS in cart. coord.  units (eV):
  Direction    XX          YY          ZZ          XY          YZ          ZX
  --------------------------------------------------------------------------------------
  Alpha Z    66.60201    66.60201    66.60201
  Ewald    -538.16083  -618.76715  -516.31441    23.85180    16.32465    -8.64691
  Hartree    61.31739    58.11428    99.44912    16.19514     3.10955     2.94548
  E(xc)    -168.58323  -168.53493  -168.47466    -0.24766     0.09081     0.04358
  Local    -146.21795   -67.92914  -208.41119   -44.48224   -16.78460     4.57945
  n-local   212.15094   205.60293   206.01389     3.51742    -0.00059    -2.58810
  augment   -35.47715   -35.09503   -35.04625    -0.25195     0.01359     0.16378
  Kinetic   549.52418   561.40022   557.59046     1.30477    -2.71247     3.45259
  Fock        0.00000     0.00000     0.00000     0.00000     0.00000     0.00000
  -------------------------------------------------------------------------------------
  Total       1.15535     1.39319     1.40896    -0.11271     0.04093    -0.05014
  in kB      14.78546    17.82913    18.03098    -1.44239     0.52378    -0.64163
  external pressure =       16.88 kB  Pullay stress =        0.00 kB


 VOLUME and BASIS-vectors are now :
 -----------------------------------------------------------------------------
  energy-cutoff  :      560.00
  volume of cell :      125.20
      direct lattice vectors                 reciprocal lattice vectors
     8.110704647  0.000000000  0.000000000     0.123293850 -0.007678703 -0.024677975
     0.320399963  5.144533514  0.000000000     0.000000000  0.194381084  0.004090462
     0.596624555 -0.063139969  3.000447622     0.000000000  0.000000000  0.333283605

  length of vectors
     8.110704647  5.154501063  3.059842062     0.125973562  0.194424118  0.333283605


 FORCES acting on ions
    electron-ion (+dipol)            ewald-force                    non-local-force                 convergence-correction
 -----------------------------------------------------------------------------------------------
   -.715E+01 0.220E+02 -.123E+01   0.785E+01 -.214E+02 0.114E+01   -.719E+00 -.595E+00 0.998E-01   0.859E-04 -.137E-03 -.412E-04
   -.603E+02 -.114E+02 0.110E+02   0.635E+02 0.115E+02 -.116E+02   -.332E+01 -.625E-01 0.682E+00   0.188E-03 0.144E-03 -.169E-04
   0.322E+02 -.307E+02 -.879E+00   -.348E+02 0.318E+02 0.127E+01   0.271E+01 -.118E+01 -.395E+00   -.806E-04 0.109E-03 -.554E-05
   -.310E+01 0.513E+02 0.124E+01   0.187E+01 -.557E+02 -.296E+01   0.127E+01 0.436E+01 0.173E+01   0.293E-04 -.545E-04 0.463E-04
   0.296E+02 -.257E+02 -.257E+02   -.304E+02 0.276E+02 0.277E+02   0.826E+00 -.187E+01 -.205E+01   -.400E-04 -.172E-03 -.660E-04
   -.980E+00 -.690E+01 -.186E+01   0.251E+01 0.104E+02 0.134E+01   -.160E+01 -.350E+01 0.511E+00   -.117E-03 -.848E-04 -.240E-04
   0.982E+01 0.351E+02 0.132E+02   -.126E+02 -.315E+02 -.102E+02   0.274E+01 -.368E+01 -.298E+01   -.113E-03 -.133E-03 0.642E-04
   0.651E+01 0.311E+02 0.117E+02   -.902E+01 -.316E+02 -.939E+01   0.248E+01 0.577E+00 -.227E+01   0.208E-03 -.206E-03 0.111E-04
   0.309E+02 -.484E+02 -.165E+02   -.266E+02 0.437E+02 0.146E+02   -.438E+01 0.463E+01 0.189E+01   -.174E-03 0.167E-03 0.206E-04
   -.149E+02 0.717E+01 0.490E+01   0.212E+02 -.119E+02 -.553E+01   -.622E+01 0.469E+01 0.604E+00   -.496E-04 -.145E-03 0.108E-05
   -.758E+02 0.471E+01 0.158E+02   0.742E+02 -.631E+00 -.151E+02   0.167E+01 -.411E+01 -.695E+00   0.281E-03 0.800E-04 -.493E-04
   0.597E+02 -.248E+02 -.784E+01   -.577E+02 0.276E+02 0.879E+01   -.197E+01 -.276E+01 -.928E+00   -.160E-03 0.139E-03 0.466E-04
 -----------------------------------------------------------------------------------------------
   0.651E+01 0.350E+01 0.380E+01   -.355E-13 -.711E-14 -.355E-14   -.651E+01 -.350E+01 -.380E+01   0.567E-04 -.292E-03 -.128E-04
 
 
 POSITION                                       TOTAL-FORCE (eV/Angst)
 -----------------------------------------------------------------------------------
      5.99349      4.56789      0.53636        -0.015870     -0.008088      0.008587
      6.44263      1.83063      1.92655        -0.067151      0.016208      0.021916
      4.92068      1.69531      2.19215         0.056140     -0.005385     -0.000442
      2.99621      4.33522      0.29110         0.043901     -0.015699      0.008396
      2.35841      0.61964      0.98984        -0.012774      0.060916     -0.032806
      0.66001      3.90577      1.57221        -0.075019      0.021790     -0.002633
      5.04912      4.96171      2.31040        -0.003462     -0.016477      0.005160
      1.88879      3.48777      2.88140        -0.029426      0.013783      0.024657
      3.60606      2.19517      0.88014        -0.050749     -0.012573     -0.022531
      7.07237      3.54413      1.88002         0.086051     -0.021893     -0.022270
      6.86738      0.98758      0.27336         0.032356     -0.029751     -0.003759
      1.69416      1.14773      2.69779         0.036003     -0.002832      0.015725
 -----------------------------------------------------------------------------------
    total drift:                                0.000007      0.000159     -0.000198


--------------------------------------------------------------------------------------------------------



  FREE ENERGIE OF THE ION-ELECTRON SYSTEM (eV)
  ---------------------------------------------------
  free  energy   TOTEN  =       -82.05790440 eV

  energy  without entropy=      -82.05788383  energy(sigma->0) =      -82.05789412
 


--------------------------------------------------------------------------------------------------------


    POTLOK:  cpu time    0.2880: real time    0.2879


--------------------------------------------------------------------------------------------------------




--------------------------------------------------------------------------------------------------------


 writing wavefunctions
     LOOP+:  cpu time  162.0584: real time  162.6066
    4ORBIT:  cpu time    0.0000: real time    0.0000
 


 total charge     
 
# of ion       s       p       d       tot
------------------------------------------
    1        0.833   1.619   0.000   2.452
    2        0.840   1.696   0.000   2.535
    3        0.837   1.670   0.000   2.507
    4        0.854   1.520   0.000   2.373
    5        0.843   1.599   0.000   2.442
    6        0.864   1.655   0.000   2.520
    7        0.736   0.861   0.000   1.598
    8        0.722   0.975   0.000   1.697
    9        0.722   0.873   0.000   1.595
   10        0.722   0.956   0.000   1.677
   11        0.730   0.905   0.000   1.635
   12        0.747   0.916   0.000   1.663
--------------------------------------------------
tot          9.451  15.244   0.000  24.695
 


 magnetization (x)
 
# of ion       s       p       d       tot
------------------------------------------
    1       -0.000   0.000   0.000   0.000
    2       -0.000  -0.000   0.000  -0.000
    3        0.000  -0.000   0.000  -0.000
    4       -0.000  -0.000   0.000  -0.000
    5       -0.000  -0.000   0.000  -0.000
    6        0.000   0.000   0.000   0.000
    7        0.000   0.000   0.000   0.000
    8       -0.000   0.000   0.000   0.000
    9        0.000   0.000   0.000   0.000
   10       -0.000   0.000   0.000   0.000
   11        0.000   0.000   0.000   0.000
   12       -0.000  -0.000   0.000  -0.000
--------------------------------------------------
tot         -0.000   0.000   0.000   0.000
 

 total amount of memory used by VASP MPI-rank0    89019. kBytes
=======================================================================

   base      :      30000. kBytes
   nonl-proj :      15421. kBytes
   fftplans  :       2276. kBytes
   grid      :       2259. kBytes
   one-center:         18. kBytes
   wavefun   :      39045. kBytes
 
  
  
 General timing and accounting informations for this job:
 ========================================================
  
                  Total CPU time used (sec):      169.059
                            User time (sec):      165.095
                          System time (sec):        3.964
                         Elapsed time (sec):      169.737
  
                   Maximum memory used (kb):      128048.
                   Average memory used (kb):           0.
  
                          Minor page faults:        57701
                          Major page faults:            0
                 Voluntary context switches:         2103
