 vasp.5.4.4.18Apr17-6-g9f103f2a35 (build Sep 20 2017 14:02:52) complex          
  
 executed on             LinuxIFC date 2018.08.13  08:30:05
 running on   16 total cores
 distrk:  each k-point on   16 cores,    1 groups
 distr:  one band on NCORES_PER_BAND=   4 cores,    4 groups


--------------------------------------------------------------------------------------------------------


 INCAR:
 POTCAR:    PAW_PBE C 08Apr2002                   
 POTCAR:    PAW_PBE Si 05Jan2001                  
 POTCAR:    PAW_PBE C 08Apr2002                   
   VRHFIN =C: s2p2                                                              
   LEXCH  = PE                                                                  
   EATOM  =   147.1560 eV,   10.8157 Ry                                         
                                                                                
   TITEL  = PAW_PBE C 08Apr2002                                                 
   LULTRA =        F    use ultrasoft PP ?                                      
   IUNSCR =        1    unscreen: 0-lin 1-nonlin 2-no                           
   RPACOR =    1.200    partial core radius                                     
   POMASS =   12.011; ZVAL   =    4.000    mass and valenz                      
   RCORE  =    1.500    outmost cutoff radius                                   
   RWIGS  =    1.630; RWIGS  =    0.863    wigner-seitz radius (au A)           
   ENMAX  =  400.000; ENMIN  =  300.000 eV                                      
   ICORE  =        2    local potential                                         
   LCOR   =        T    correct aug charges                                     
   LPAW   =        T    paw PP                                                  
   EAUG   =  644.873                                                            
   DEXC   =    0.000                                                            
   RMAX   =    1.529    core radius for proj-oper                               
   RAUG   =    1.300    factor for augmentation sphere                          
   RDEP   =    1.501    radius for radial grids                                 
   RDEPT  =    1.300    core radius for aug-charge                              
                                                                                
   Atomic configuration                                                         
    4 entries                                                                   
     n  l   j            E        occ.                                          
     1  0  0.50      -273.3789   2.0000                                         
     2  0  0.50       -13.7508   2.0000                                         
     2  1  0.50        -5.2854   2.0000                                         
     3  2  1.50        -5.4423   0.0000                                         
   Description                                                                  
     l       E           TYP  RCUT    TYP  RCUT                                 
     0    -13.7508458     23  1.200                                             
     0     -8.2022199     23  1.200                                             
     1     -5.2854383     23  1.500                                             
     1     34.0145650     23  1.500                                             
     2     -5.4423304      7  1.500                                             
  local pseudopotential read in
  partial core-charges read in
  partial kinetic energy density read in
  atomic valenz-charges read in
  non local Contribution for L=           0  read in
    real space projection operators read in
  non local Contribution for L=           0  read in
    real space projection operators read in
  non local Contribution for L=           1  read in
    real space projection operators read in
  non local Contribution for L=           1  read in
    real space projection operators read in
    PAW grid and wavefunctions read in
 
   number of l-projection  operators is LMAX  =           4
   number of lm-projection operators is LMMAX =           8
 
 POTCAR:    PAW_PBE Si 05Jan2001                  
   VRHFIN =Si: s2p2                                                             
   LEXCH  = PE                                                                  
   EATOM  =   103.0669 eV,    7.5752 Ry                                         
                                                                                
   TITEL  = PAW_PBE Si 05Jan2001                                                
   LULTRA =        F    use ultrasoft PP ?                                      
   IUNSCR =        1    unscreen: 0-lin 1-nonlin 2-no                           
   RPACOR =    1.500    partial core radius                                     
   POMASS =   28.085; ZVAL   =    4.000    mass and valenz                      
   RCORE  =    1.900    outmost cutoff radius                                   
   RWIGS  =    2.480; RWIGS  =    1.312    wigner-seitz radius (au A)           
   ENMAX  =  245.345; ENMIN  =  184.009 eV                                      
   ICORE  =        2    local potential                                         
   LCOR   =        T    correct aug charges                                     
   LPAW   =        T    paw PP                                                  
   EAUG   =  322.069                                                            
   DEXC   =    0.000                                                            
   RMAX   =    1.950    core radius for proj-oper                               
   RAUG   =    1.300    factor for augmentation sphere                          
   RDEP   =    1.993    radius for radial grids                                 
   RDEPT  =    1.837    core radius for aug-charge                              
                                                                                
   Atomic configuration                                                         
    6 entries                                                                   
     n  l   j            E        occ.                                          
     1  0  0.50     -1785.8828   2.0000                                         
     2  0  0.50      -139.4969   2.0000                                         
     2  1  1.50       -95.5546   6.0000                                         
     3  0  0.50       -10.8127   2.0000                                         
     3  1  0.50        -4.0811   2.0000                                         
     3  2  1.50        -4.0817   0.0000                                         
   Description                                                                  
     l       E           TYP  RCUT    TYP  RCUT                                 
     0    -10.8127223     23  1.900                                             
     0     -7.6451159     23  1.900                                             
     1     -4.0811372     23  1.900                                             
     1      2.4879257     23  1.900                                             
     2     -4.0817478      7  1.900                                             
  local pseudopotential read in
  partial core-charges read in
  partial kinetic energy density read in
  atomic valenz-charges read in
  non local Contribution for L=           0  read in
    real space projection operators read in
  non local Contribution for L=           0  read in
    real space projection operators read in
  non local Contribution for L=           1  read in
    real space projection operators read in
  non local Contribution for L=           1  read in
    real space projection operators read in
    PAW grid and wavefunctions read in
 
   number of l-projection  operators is LMAX  =           4
   number of lm-projection operators is LMMAX =           8
 
  PAW_PBE C 08Apr2002                   :
 energy of atom  1       EATOM= -147.1560
 kinetic energy error for atom=    0.0065 (will be added to EATOM!!)
  PAW_PBE Si 05Jan2001                  :
 energy of atom  2       EATOM= -103.0669
 kinetic energy error for atom=    0.0004 (will be added to EATOM!!)
 
 
 POSCAR:  C Si                                   
  positions in direct lattice
  No initial velocities read in
 exchange correlation table for  LEXCH =        8
   RHO(1)=    0.500       N(1)  =     2000
   RHO(2)=  100.500       N(2)  =     4000
 


--------------------------------------------------------------------------------------------------------


 ion  position               nearest neighbor table
   1  0.193  0.094  0.087-   2 1.48   6 1.50   7 2.10  12 2.17   8 2.21
   2  0.014  0.243  0.902-   1 1.48   8 1.82  12 1.85  10 2.52
   3  0.404  0.038  0.568-  11 1.75   7 1.77
   4  0.072  0.707  0.364-   6 1.40  10 1.86   9 1.88
   5  0.672  0.908  0.225-  11 1.83   7 1.87   8 1.87   9 1.97
   6  0.145  0.885  0.141-   4 1.40   1 1.50   7 1.85   8 2.03
   7  0.392  0.947  0.967-   3 1.77   6 1.85   5 1.87   1 2.10   8 2.88  11 2.91  11 2.98
   8  0.849  0.028  0.925-   2 1.82   5 1.87   6 2.03   1 2.21  11 2.28   7 2.88   9 3.06
   9  0.825  0.658  0.549-   4 1.88   5 1.97  10 2.46  11 2.68   8 3.06  12 3.13
  10  0.973  0.482  0.325-   4 1.86   9 2.46  12 2.49   2 2.52
  11  0.653  0.971  0.530-   3 1.75   5 1.83   8 2.28   9 2.68   7 2.91   7 2.98
  12  0.207  0.381  0.073-   2 1.85   1 2.17  10 2.49   9 3.13
 
  LATTYP: Found a triclinic cell.
 ALAT       =     6.8491076502
 B/A-ratio  =     1.3393630223
 C/A-ratio  =     1.7009352545
 COS(alpha) =     0.0045535049
 COS(beta)  =     0.4577741344
 COS(gamma) =     0.8471030801
  
  Lattice vectors:
  
 A1 = (  -0.3607920387,  -5.3501972372,   4.2609264522)
 A2 = (  -1.4674693235,  -3.0621211968,   8.5218529044)
 A3 = (  -4.3625681504,  -9.9263493181,  -4.2609264522)


Analysis of symmetry for initial positions (statically):
=====================================================================
 Subroutine PRICEL returns:
 Original cell was already a primitive cell.
 

 Routine SETGRP: Setting up the symmetry group for a 
 triclinic supercell.


 Subroutine GETGRP returns: Found  1 space group operations
 (whereof  1 operations were pure point group operations)
 out of a pool of  2 trial point group operations.


The static configuration has the point symmetry C_1 .


Analysis of symmetry for dynamics (positions and initial velocities):
=====================================================================
 Subroutine PRICEL returns:
 Original cell was already a primitive cell.
 

 Routine SETGRP: Setting up the symmetry group for a 
 triclinic supercell.


 Subroutine GETGRP returns: Found  1 space group operations
 (whereof  1 operations were pure point group operations)
 out of a pool of  2 trial point group operations.


The dynamic configuration has the point symmetry C_1 .


Analysis of structural, dynamic, and magnetic symmetry:
=====================================================================
 Subroutine PRICEL returns:
 Original cell was already a primitive cell.
 

 Routine SETGRP: Setting up the symmetry group for a 
 triclinic supercell.


 Subroutine GETGRP returns: Found  1 space group operations
 (whereof  1 operations were pure point group operations)
 out of a pool of  2 trial point group operations.


The magnetic configuration has the point symmetry C_1 .


 Subroutine INISYM returns: Found  1 space group operations
 (whereof  1 operations are pure point group operations),
 and found     1 'primitive' translations

 
 
 KPOINTS: Automatic mesh                          

Automatic generation of k-mesh.
 generate k-points for:    5    4    7
Space group operators:
 irot       det(A)        alpha          n_x          n_y          n_z        tau_x        tau_y        tau_z
    1     1.000000     0.000001     1.000000     0.000000     0.000000     0.000000     0.000000     0.000000
 
 Subroutine IBZKPT returns following result:
 ===========================================
 
 Found     71 irreducible k-points:
 
 Following reciprocal coordinates:
            Coordinates               Weight
  0.000000  0.000000  0.000000      1.000000
  0.200000  0.000000 -0.000000      2.000000
  0.400000  0.000000 -0.000000      2.000000
  0.000000  0.250000  0.000000      2.000000
  0.200000  0.250000  0.000000      2.000000
  0.400000  0.250000  0.000000      2.000000
 -0.400000  0.250000  0.000000      2.000000
 -0.200000  0.250000  0.000000      2.000000
  0.000000  0.500000  0.000000      1.000000
  0.200000  0.500000  0.000000      2.000000
  0.400000  0.500000  0.000000      2.000000
  0.000000  0.000000  0.142857      2.000000
  0.200000  0.000000  0.142857      2.000000
  0.400000  0.000000  0.142857      2.000000
 -0.400000  0.000000  0.142857      2.000000
 -0.200000  0.000000  0.142857      2.000000
  0.000000  0.250000  0.142857      2.000000
  0.200000  0.250000  0.142857      2.000000
  0.400000  0.250000  0.142857      2.000000
 -0.400000  0.250000  0.142857      2.000000
 -0.200000  0.250000  0.142857      2.000000
  0.000000  0.500000  0.142857      2.000000
  0.200000  0.500000  0.142857      2.000000
  0.400000  0.500000  0.142857      2.000000
 -0.400000  0.500000  0.142857      2.000000
 -0.200000  0.500000  0.142857      2.000000
  0.000000 -0.250000  0.142857      2.000000
  0.200000 -0.250000  0.142857      2.000000
  0.400000 -0.250000  0.142857      2.000000
 -0.400000 -0.250000  0.142857      2.000000
 -0.200000 -0.250000  0.142857      2.000000
  0.000000  0.000000  0.285714      2.000000
  0.200000  0.000000  0.285714      2.000000
  0.400000  0.000000  0.285714      2.000000
 -0.400000  0.000000  0.285714      2.000000
 -0.200000  0.000000  0.285714      2.000000
  0.000000  0.250000  0.285714      2.000000
  0.200000  0.250000  0.285714      2.000000
  0.400000  0.250000  0.285714      2.000000
 -0.400000  0.250000  0.285714      2.000000
 -0.200000  0.250000  0.285714      2.000000
  0.000000  0.500000  0.285714      2.000000
  0.200000  0.500000  0.285714      2.000000
  0.400000  0.500000  0.285714      2.000000
 -0.400000  0.500000  0.285714      2.000000
 -0.200000  0.500000  0.285714      2.000000
  0.000000 -0.250000  0.285714      2.000000
  0.200000 -0.250000  0.285714      2.000000
  0.400000 -0.250000  0.285714      2.000000
 -0.400000 -0.250000  0.285714      2.000000
 -0.200000 -0.250000  0.285714      2.000000
  0.000000  0.000000  0.428571      2.000000
  0.200000  0.000000  0.428571      2.000000
  0.400000  0.000000  0.428571      2.000000
 -0.400000  0.000000  0.428571      2.000000
 -0.200000  0.000000  0.428571      2.000000
  0.000000  0.250000  0.428571      2.000000
  0.200000  0.250000  0.428571      2.000000
  0.400000  0.250000  0.428571      2.000000
 -0.400000  0.250000  0.428571      2.000000
 -0.200000  0.250000  0.428571      2.000000
  0.000000  0.500000  0.428571      2.000000
  0.200000  0.500000  0.428571      2.000000
  0.400000  0.500000  0.428571      2.000000
 -0.400000  0.500000  0.428571      2.000000
 -0.200000  0.500000  0.428571      2.000000
  0.000000 -0.250000  0.428571      2.000000
  0.200000 -0.250000  0.428571      2.000000
  0.400000 -0.250000  0.428571      2.000000
 -0.400000 -0.250000  0.428571      2.000000
 -0.200000 -0.250000  0.428571      2.000000
 
 Following cartesian coordinates:
            Coordinates               Weight
  0.000000  0.000000  0.000000      1.000000
  0.032180  0.003142  0.006670      2.000000
  0.064359  0.006285  0.013341      2.000000
  0.000000  0.032730 -0.017576      2.000000
  0.032180  0.035872 -0.010905      2.000000
  0.064359  0.039015 -0.004235      2.000000
 -0.064359  0.026445 -0.030917      2.000000
 -0.032180  0.029588 -0.024246      2.000000
  0.000000  0.065460 -0.035151      1.000000
  0.032180  0.068602 -0.028481      2.000000
  0.064359  0.071745 -0.021810      2.000000
  0.000000  0.000000  0.033527      2.000000
  0.032180  0.003142  0.040198      2.000000
  0.064359  0.006285  0.046868      2.000000
 -0.064359 -0.006285  0.020186      2.000000
 -0.032180 -0.003142  0.026857      2.000000
  0.000000  0.032730  0.015952      2.000000
  0.032180  0.035872  0.022622      2.000000
  0.064359  0.039015  0.029293      2.000000
 -0.064359  0.026445  0.002611      2.000000
 -0.032180  0.029588  0.009281      2.000000
  0.000000  0.065460 -0.001624      2.000000
  0.032180  0.068602  0.005046      2.000000
  0.064359  0.071745  0.011717      2.000000
 -0.064359  0.059175 -0.014965      2.000000
 -0.032180  0.062317 -0.008295      2.000000
  0.000000 -0.032730  0.051103      2.000000
  0.032180 -0.029588  0.057773      2.000000
  0.064359 -0.026445  0.064444      2.000000
 -0.064359 -0.039015  0.037762      2.000000
 -0.032180 -0.035872  0.044432      2.000000
  0.000000  0.000000  0.067054      2.000000
  0.032180  0.003142  0.073725      2.000000
  0.064359  0.006285  0.080395      2.000000
 -0.064359 -0.006285  0.053714      2.000000
 -0.032180 -0.003142  0.060384      2.000000
  0.000000  0.032730  0.049479      2.000000
  0.032180  0.035872  0.056149      2.000000
  0.064359  0.039015  0.062820      2.000000
 -0.064359  0.026445  0.036138      2.000000
 -0.032180  0.029588  0.042808      2.000000
  0.000000  0.065460  0.031903      2.000000
  0.032180  0.068602  0.038574      2.000000
  0.064359  0.071745  0.045244      2.000000
 -0.064359  0.059175  0.018562      2.000000
 -0.032180  0.062317  0.025233      2.000000
  0.000000 -0.032730  0.084630      2.000000
  0.032180 -0.029588  0.091301      2.000000
  0.064359 -0.026445  0.097971      2.000000
 -0.064359 -0.039015  0.071289      2.000000
 -0.032180 -0.035872  0.077960      2.000000
  0.000000  0.000000  0.100582      2.000000
  0.032180  0.003142  0.107252      2.000000
  0.064359  0.006285  0.113923      2.000000
 -0.064359 -0.006285  0.087241      2.000000
 -0.032180 -0.003142  0.093911      2.000000
  0.000000  0.032730  0.083006      2.000000
  0.032180  0.035872  0.089677      2.000000
  0.064359  0.039015  0.096347      2.000000
 -0.064359  0.026445  0.069665      2.000000
 -0.032180  0.029588  0.076336      2.000000
  0.000000  0.065460  0.065430      2.000000
  0.032180  0.068602  0.072101      2.000000
  0.064359  0.071745  0.078771      2.000000
 -0.064359  0.059175  0.052090      2.000000
 -0.032180  0.062317  0.058760      2.000000
  0.000000 -0.032730  0.118157      2.000000
  0.032180 -0.029588  0.124828      2.000000
  0.064359 -0.026445  0.131498      2.000000
 -0.064359 -0.039015  0.104816      2.000000
 -0.032180 -0.035872  0.111487      2.000000
 


--------------------------------------------------------------------------------------------------------




 Dimension of arrays:
   k-points           NKPTS =     71   k-points in BZ     NKDIM =     71   number of bands    NBANDS=     40
   number of dos      NEDOS =    301   number of ions     NIONS =     12
   non local maximal  LDIM  =      4   non local SUM 2l+1 LMDIM =      8
   total plane-waves  NPLWV = 115200
   max r-space proj   IRMAX =      1   max aug-charges    IRDMAX=  52677
   dimension x,y,z NGX =    48 NGY =   60 NGZ =   40
   dimension x,y,z NGXF=    70 NGYF=   84 NGZF=   54
   support grid    NGXF=   140 NGYF=  168 NGZF=  108
   ions per type =               6   6
   NGX,Y,Z   is equivalent  to a cutoff of  12.84, 13.00, 13.40 a.u.
   NGXF,Y,Z  is equivalent  to a cutoff of  18.72, 18.20, 18.09 a.u.

 SYSTEM =  TEST                                    
 POSCAR =   C Si                                   

 Startparameter for this run:
   NWRITE =      2    write-flag & timer
   PREC   = high      normal or accurate (medium, high low for compatibility)
   ISTART =      1    job   : 0-new  1-cont  2-samecut
   ICHARG =      0    charge: 1-file 2-atom 10-const
   ISPIN  =      2    spin polarized calculation?
   LNONCOLLINEAR =      F non collinear calculations
   LSORBIT =      F    spin-orbit coupling
   INIWAV =      1    electr: 0-lowe 1-rand  2-diag
   LASPH  =      T    aspherical Exc in radial PAW
   METAGGA=      F    non-selfconsistent MetaGGA calc.

 Electronic Relaxation 1
   ENCUT  =  560.0 eV  41.16 Ry    6.42 a.u.  11.99 14.81  9.57*2*pi/ulx,y,z
   ENINI  =  560.0     initial cutoff
   ENAUG  =  644.9 eV  augmentation charge cutoff
   NELM   =    100;   NELMIN=  8; NELMDL=  0     # of ELM steps 
   EDIFF  = 0.1E-06   stopping-criterion for ELM
   LREAL  =      F    real-space projection
   NLSPLINE    = F    spline interpolate recip. space projectors
   LCOMPAT=      F    compatible to vasp.4.4
   GGA_COMPAT  = T    GGA compatible to vasp.4.4-vasp.4.6
   LMAXPAW     = -100 max onsite density
   LMAXMIX     =    4 max onsite mixed and CHGCAR
   VOSKOWN=      0    Vosko Wilk Nusair interpolation
   ROPT   =    0.00000   0.00000
 Ionic relaxation
   EDIFFG = -.1E-02   stopping-criterion for IOM
   NSW    =      1    number of steps for IOM
   NBLOCK =      1;   KBLOCK =      1    inner block; outer block 
   IBRION =      2    ionic relax: 0-MD 1-quasi-New 2-CG
   NFREE  =      1    steps in history (QN), initial steepest desc. (CG)
   ISIF   =      2    stress and relaxation
   IWAVPR =     11    prediction:  0-non 1-charg 2-wave 3-comb
   ISYM   =      2    0-nonsym 1-usesym 2-fastsym
   LCORR  =      T    Harris-Foulkes like correction to forces

   POTIM  = 0.5000    time-step for ionic-motion
   TEIN   =    0.0    initial temperature
   TEBEG  =    0.0;   TEEND  =   0.0 temperature during run
   SMASS  =  -3.00    Nose mass-parameter (am)
   estimated Nose-frequenzy (Omega)   =  0.10E-29 period in steps =****** mass=  -0.883E-27a.u.
   SCALEE = 1.0000    scale energy and forces
   NPACO  =    256;   APACO  = 16.0  distance and # of slots for P.C.
   PSTRESS=    0.0 pullay stress

  Mass of Ions in am
   POMASS =  12.01 28.09
  Ionic Valenz
   ZVAL   =   4.00  4.00
  Atomic Wigner-Seitz radii
   RWIGS  =  -1.00 -1.00
  virtual crystal weights 
   VCA    =   1.00  1.00
   NELECT =      48.0000    total number of electrons
   NUPDOWN=      -1.0000    fix difference up-down

 DOS related values:
   EMIN   =  10.00;   EMAX   =-10.00  energy-range for DOS
   EFERMI =   0.00
   ISMEAR =     0;   SIGMA  =   0.02  broadening in eV -4-tet -1-fermi 0-gaus

 Electronic relaxation 2 (details)
   IALGO  =     38    algorithm
   LDIAG  =      T    sub-space diagonalisation (order eigenvalues)
   LSUBROT=      F    optimize rotation matrix (better conditioning)
   TURBO    =      0    0=normal 1=particle mesh
   IRESTART =      0    0=no restart 2=restart with 2 vectors
   NREBOOT  =      0    no. of reboots
   NMIN     =      0    reboot dimension
   EREF     =   0.00    reference energy to select bands
   IMIX   =      4    mixing-type and parameters
     AMIX     =   0.40;   BMIX     =  1.00
     AMIX_MAG =   1.60;   BMIX_MAG =  1.00
     AMIN     =   0.10
     WC   =   100.;   INIMIX=   1;  MIXPRE=   1;  MAXMIX= -45

 Intra band minimization:
   WEIMIN = 0.0010     energy-eigenvalue tresh-hold
   EBREAK =  0.63E-09  absolut break condition
   DEPER  =   0.30     relativ break condition  

   TIME   =   0.40     timestep for ELM

  volume/ion in A,a.u.               =      16.86       113.75
  Fermi-wavevector in a.u.,A,eV,Ry     =   1.013535  1.915303 13.976628  1.027253
  Thomas-Fermi vector in A             =   2.146709
 
 Write flags
   LWAVE        =      T    write WAVECAR
   LDOWNSAMPLE  =      F    k-point downsampling of WAVECAR
   LCHARG       =      T    write CHGCAR
   LVTOT        =      F    write LOCPOT, total local potential
   LVHAR        =      F    write LOCPOT, Hartree potential only
   LELF         =      F    write electronic localiz. function (ELF)
   LORBIT       =     11    0 simple, 1 ext, 2 COOP (PROOUT), +10 PAW based schemes


 Dipole corrections
   LMONO  =      F    monopole corrections only (constant potential shift)
   LDIPOL =      F    correct potential (dipole corrections)
   IDIPOL =      0    1-x, 2-y, 3-z, 4-all directions 
   EPSILON=  1.0000000 bulk dielectric constant

 Exchange correlation treatment:
   GGA     =    --    GGA type
   LEXCH   =     8    internal setting for exchange type
   VOSKOWN=      0    Vosko Wilk Nusair interpolation
   LHFCALC =     F    Hartree Fock is set to
   LHFONE  =     F    Hartree Fock one center treatment
   AEXX    =    0.0000 exact exchange contribution

 Linear response parameters
   LEPSILON=     F    determine dielectric tensor
   LRPA    =     F    only Hartree local field effects (RPA)
   LNABLA  =     F    use nabla operator in PAW spheres
   LVEL    =     F    velocity operator in full k-point grid
   LINTERFAST=   F  fast interpolation
   KINTER  =     0    interpolate to denser k-point grid
   CSHIFT  =0.1000    complex shift for real part using Kramers Kronig
   OMEGAMAX=  -1.0    maximum frequency
   DEG_THRESHOLD= 0.2000000E-02 threshold for treating states as degnerate
   RTIME   =   -0.100 relaxation time in fs
  (WPLASMAI=    0.000 imaginary part of plasma frequency in eV, 0.658/RTIME)
   DFIELD  = 0.0000000 0.0000000 0.0000000 field for delta impulse in time
 
 Orbital magnetization related:
   ORBITALMAG=     F  switch on orbital magnetization
   LCHIMAG   =     F  perturbation theory with respect to B field
   DQ        =  0.001000  dq finite difference perturbation B field
   LLRAUG    =     F  two centre corrections for induced B field



--------------------------------------------------------------------------------------------------------


 conjugate gradient relaxation of ions
 charge density and potential will be updated during run
 spin polarized calculation
 Variant of blocked Davidson
 Davidson routine will perform the subspace rotation
 perform sub-space diagonalisation
    after iterative eigenvector-optimisation
 modified Broyden-mixing scheme, WC =      100.0
 initial mixing is a Kerker type mixing with AMIX =  0.4000 and BMIX =      1.0000
 Hartree-type preconditioning will be used
 using additional bands           16
 reciprocal scheme for non local part
 use partial core corrections
 calculate Harris-corrections to forces 
   (improved forces if not selfconsistent)
 use gradient corrections 
 use of overlap-Matrix (Vanderbilt PP)
 Gauss-broadening in eV      SIGMA  =   0.02


--------------------------------------------------------------------------------------------------------


  energy-cutoff  :      560.00
  volume of cell :      202.28
      direct lattice vectors                 reciprocal lattice vectors
     6.215130681  0.000000000  0.000000000     0.160897663  0.015711822  0.033352358
    -0.745885246  7.638273278  0.000000000     0.000000000  0.130919642 -0.070302574
    -1.106677285  2.288076040  4.260926452     0.000000000  0.000000000  0.234690744

  length of vectors
     6.215130681  7.674605102  4.961403109     0.165067559  0.148601495  0.234690744


 
 old parameters found on file WAVECAR:
  energy-cutoff  :      560.00
  volume of cell :      202.28
      direct lattice vectors                 reciprocal lattice vectors
     6.215130681  0.000000000  0.000000000     0.160897663  0.015711822  0.033352358
    -0.745885246  7.638273278  0.000000000     0.000000000  0.130919642 -0.070302574
    -1.106677285  2.288076040  4.260926452     0.000000000  0.000000000  0.234690744

  length of vectors

 
 k-points in units of 2pi/SCALE and weight: Automatic mesh                          
   0.00000000  0.00000000  0.00000000       0.007
   0.03217953  0.00314236  0.00667047       0.014
   0.06435907  0.00628473  0.01334094       0.014
   0.00000000  0.03272991 -0.01757564       0.014
   0.03217953  0.03587227 -0.01090517       0.014
   0.06435907  0.03901464 -0.00423470       0.014
  -0.06435907  0.02644518 -0.03091659       0.014
  -0.03217953  0.02958755 -0.02424611       0.014
   0.00000000  0.06545982 -0.03515129       0.007
   0.03217953  0.06860219 -0.02848082       0.014
   0.06435907  0.07174455 -0.02181034       0.014
   0.00000000  0.00000000  0.03352725       0.014
   0.03217953  0.00314236  0.04019772       0.014
   0.06435907  0.00628473  0.04686819       0.014
  -0.06435907 -0.00628473  0.02018631       0.014
  -0.03217953 -0.00314236  0.02685678       0.014
   0.00000000  0.03272991  0.01595161       0.014
   0.03217953  0.03587227  0.02262208       0.014
   0.06435907  0.03901464  0.02929255       0.014
  -0.06435907  0.02644518  0.00261066       0.014
  -0.03217953  0.02958755  0.00928113       0.014
   0.00000000  0.06545982 -0.00162404       0.014
   0.03217953  0.06860219  0.00504643       0.014
   0.06435907  0.07174455  0.01171691       0.014
  -0.06435907  0.05917509 -0.01496498       0.014
  -0.03217953  0.06231746 -0.00829451       0.014
   0.00000000 -0.03272991  0.05110289       0.014
   0.03217953 -0.02958755  0.05777336       0.014
   0.06435907 -0.02644518  0.06444384       0.014
  -0.06435907 -0.03901464  0.03776195       0.014
  -0.03217953 -0.03587227  0.04443242       0.014
   0.00000000  0.00000000  0.06705450       0.014
   0.03217953  0.00314236  0.07372497       0.014
   0.06435907  0.00628473  0.08039544       0.014
  -0.06435907 -0.00628473  0.05371356       0.014
  -0.03217953 -0.00314236  0.06038403       0.014
   0.00000000  0.03272991  0.04947885       0.014
   0.03217953  0.03587227  0.05614933       0.014
   0.06435907  0.03901464  0.06281980       0.014
  -0.06435907  0.02644518  0.03613791       0.014
  -0.03217953  0.02958755  0.04280838       0.014
   0.00000000  0.06545982  0.03190321       0.014
   0.03217953  0.06860219  0.03857368       0.014
   0.06435907  0.07174455  0.04524415       0.014
  -0.06435907  0.05917509  0.01856227       0.014
  -0.03217953  0.06231746  0.02523274       0.014
   0.00000000 -0.03272991  0.08463014       0.014
   0.03217953 -0.02958755  0.09130061       0.014
   0.06435907 -0.02644518  0.09797108       0.014
  -0.06435907 -0.03901464  0.07128920       0.014
  -0.03217953 -0.03587227  0.07795967       0.014
   0.00000000  0.00000000  0.10058175       0.014
   0.03217953  0.00314236  0.10725222       0.014
   0.06435907  0.00628473  0.11392269       0.014
  -0.06435907 -0.00628473  0.08724080       0.014
  -0.03217953 -0.00314236  0.09391128       0.014
   0.00000000  0.03272991  0.08300610       0.014
   0.03217953  0.03587227  0.08967658       0.014
   0.06435907  0.03901464  0.09634705       0.014
  -0.06435907  0.02644518  0.06966516       0.014
  -0.03217953  0.02958755  0.07633563       0.014
   0.00000000  0.06545982  0.06543046       0.014
   0.03217953  0.06860219  0.07210093       0.014
   0.06435907  0.07174455  0.07877140       0.014
  -0.06435907  0.05917509  0.05208952       0.014
  -0.03217953  0.06231746  0.05875999       0.014
   0.00000000 -0.03272991  0.11815739       0.014
   0.03217953 -0.02958755  0.12482786       0.014
   0.06435907 -0.02644518  0.13149833       0.014
  -0.06435907 -0.03901464  0.10481645       0.014
  -0.03217953 -0.03587227  0.11148692       0.014
 
 k-points in reciprocal lattice and weights: Automatic mesh                          
   0.00000000  0.00000000  0.00000000       0.007
   0.20000000  0.00000000 -0.00000000       0.014
   0.40000000  0.00000000 -0.00000000       0.014
   0.00000000  0.25000000  0.00000000       0.014
   0.20000000  0.25000000  0.00000000       0.014
   0.40000000  0.25000000  0.00000000       0.014
  -0.40000000  0.25000000  0.00000000       0.014
  -0.20000000  0.25000000  0.00000000       0.014
   0.00000000  0.50000000  0.00000000       0.007
   0.20000000  0.50000000  0.00000000       0.014
   0.40000000  0.50000000  0.00000000       0.014
   0.00000000  0.00000000  0.14285714       0.014
   0.20000000  0.00000000  0.14285714       0.014
   0.40000000  0.00000000  0.14285714       0.014
  -0.40000000  0.00000000  0.14285714       0.014
  -0.20000000  0.00000000  0.14285714       0.014
   0.00000000  0.25000000  0.14285714       0.014
   0.20000000  0.25000000  0.14285714       0.014
   0.40000000  0.25000000  0.14285714       0.014
  -0.40000000  0.25000000  0.14285714       0.014
  -0.20000000  0.25000000  0.14285714       0.014
   0.00000000  0.50000000  0.14285714       0.014
   0.20000000  0.50000000  0.14285714       0.014
   0.40000000  0.50000000  0.14285714       0.014
  -0.40000000  0.50000000  0.14285714       0.014
  -0.20000000  0.50000000  0.14285714       0.014
   0.00000000 -0.25000000  0.14285714       0.014
   0.20000000 -0.25000000  0.14285714       0.014
   0.40000000 -0.25000000  0.14285714       0.014
  -0.40000000 -0.25000000  0.14285714       0.014
  -0.20000000 -0.25000000  0.14285714       0.014
   0.00000000  0.00000000  0.28571429       0.014
   0.20000000  0.00000000  0.28571429       0.014
   0.40000000  0.00000000  0.28571429       0.014
  -0.40000000  0.00000000  0.28571429       0.014
  -0.20000000  0.00000000  0.28571429       0.014
   0.00000000  0.25000000  0.28571429       0.014
   0.20000000  0.25000000  0.28571429       0.014
   0.40000000  0.25000000  0.28571429       0.014
  -0.40000000  0.25000000  0.28571429       0.014
  -0.20000000  0.25000000  0.28571429       0.014
   0.00000000  0.50000000  0.28571429       0.014
   0.20000000  0.50000000  0.28571429       0.014
   0.40000000  0.50000000  0.28571429       0.014
  -0.40000000  0.50000000  0.28571429       0.014
  -0.20000000  0.50000000  0.28571429       0.014
   0.00000000 -0.25000000  0.28571429       0.014
   0.20000000 -0.25000000  0.28571429       0.014
   0.40000000 -0.25000000  0.28571429       0.014
  -0.40000000 -0.25000000  0.28571429       0.014
  -0.20000000 -0.25000000  0.28571429       0.014
   0.00000000  0.00000000  0.42857143       0.014
   0.20000000  0.00000000  0.42857143       0.014
   0.40000000  0.00000000  0.42857143       0.014
  -0.40000000  0.00000000  0.42857143       0.014
  -0.20000000  0.00000000  0.42857143       0.014
   0.00000000  0.25000000  0.42857143       0.014
   0.20000000  0.25000000  0.42857143       0.014
   0.40000000  0.25000000  0.42857143       0.014
  -0.40000000  0.25000000  0.42857143       0.014
  -0.20000000  0.25000000  0.42857143       0.014
   0.00000000  0.50000000  0.42857143       0.014
   0.20000000  0.50000000  0.42857143       0.014
   0.40000000  0.50000000  0.42857143       0.014
  -0.40000000  0.50000000  0.42857143       0.014
  -0.20000000  0.50000000  0.42857143       0.014
   0.00000000 -0.25000000  0.42857143       0.014
   0.20000000 -0.25000000  0.42857143       0.014
   0.40000000 -0.25000000  0.42857143       0.014
  -0.40000000 -0.25000000  0.42857143       0.014
  -0.20000000 -0.25000000  0.42857143       0.014
 
 position of ions in fractional coordinates (direct lattice) 
   0.19315319  0.09355752  0.08658526
   0.01365797  0.24315527  0.90231176
   0.40371246  0.03771466  0.56761262
   0.07247403  0.70667920  0.36432778
   0.67168666  0.90808115  0.22453841
   0.14452324  0.88541059  0.14094975
   0.39242988  0.94691814  0.96671173
   0.84932566  0.02848279  0.92516944
   0.82513262  0.65761779  0.54923848
   0.97319833  0.48192127  0.32508290
   0.65289714  0.97112551  0.52989083
   0.20655032  0.38093476  0.07346539
 
 position of ions in cartesian coordinates  (Angst):
   1.03486720  0.91273156  0.36893343
  -1.09504782  3.92184434  3.84468406
   1.85283087  1.58681575  2.41855564
  -0.47985927  6.23141850  1.55237388
   3.24880451  7.44993291  0.95674164
   0.08183026  7.08551179  0.60057654
   0.66287281  9.44472944  4.11908756
   4.23356109  2.33441735  3.94207895
   4.02996992  6.27976378  2.34026477
   5.32933495  4.42486078  1.38515431
   2.74707473  8.63015258  2.25782585
   0.91830111  3.07777822  0.31303062
 


--------------------------------------------------------------------------------------------------------


 k-point  1 :   0.0000 0.0000 0.0000  plane waves:    6093
 k-point  2 :   0.2000 0.0000-0.0000  plane waves:    6093
 k-point  3 :   0.4000 0.0000-0.0000  plane waves:    6097
 k-point  4 :   0.0000 0.2500 0.0000  plane waves:    6081
 k-point  5 :   0.2000 0.2500 0.0000  plane waves:    6092
 k-point  6 :   0.4000 0.2500 0.0000  plane waves:    6089
 k-point  7 :  -0.4000 0.2500 0.0000  plane waves:    6096
 k-point  8 :  -0.2000 0.2500 0.0000  plane waves:    6090
 k-point  9 :   0.0000 0.5000 0.0000  plane waves:    6100
 k-point 10 :   0.2000 0.5000 0.0000  plane waves:    6106
 k-point 11 :   0.4000 0.5000 0.0000  plane waves:    6099
 k-point 12 :   0.0000 0.0000 0.1429  plane waves:    6078
 k-point 13 :   0.2000 0.0000 0.1429  plane waves:    6079
 k-point 14 :   0.4000 0.0000 0.1429  plane waves:    6091
 k-point 15 :  -0.4000 0.0000 0.1429  plane waves:    6109
 k-point 16 :  -0.2000 0.0000 0.1429  plane waves:    6102
 k-point 17 :   0.0000 0.2500 0.1429  plane waves:    6082
 k-point 18 :   0.2000 0.2500 0.1429  plane waves:    6087
 k-point 19 :   0.4000 0.2500 0.1429  plane waves:    6088
 k-point 20 :  -0.4000 0.2500 0.1429  plane waves:    6106
 k-point 21 :  -0.2000 0.2500 0.1429  plane waves:    6100
 k-point 22 :   0.0000 0.5000 0.1429  plane waves:    6078
 k-point 23 :   0.2000 0.5000 0.1429  plane waves:    6115
 k-point 24 :   0.4000 0.5000 0.1429  plane waves:    6101
 k-point 25 :  -0.4000 0.5000 0.1429  plane waves:    6100
 k-point 26 :  -0.2000 0.5000 0.1429  plane waves:    6087
 k-point 27 :   0.0000-0.2500 0.1429  plane waves:    6083
 k-point 28 :   0.2000-0.2500 0.1429  plane waves:    6085
 k-point 29 :   0.4000-0.2500 0.1429  plane waves:    6108
 k-point 30 :  -0.4000-0.2500 0.1429  plane waves:    6098
 k-point 31 :  -0.2000-0.2500 0.1429  plane waves:    6095
 k-point 32 :   0.0000 0.0000 0.2857  plane waves:    6070
 k-point 33 :   0.2000 0.0000 0.2857  plane waves:    6071
 k-point 34 :   0.4000 0.0000 0.2857  plane waves:    6087
 k-point 35 :  -0.4000 0.0000 0.2857  plane waves:    6099
 k-point 36 :  -0.2000 0.0000 0.2857  plane waves:    6092
 k-point 37 :   0.0000 0.2500 0.2857  plane waves:    6083
 k-point 38 :   0.2000 0.2500 0.2857  plane waves:    6084
 k-point 39 :   0.4000 0.2500 0.2857  plane waves:    6081
 k-point 40 :  -0.4000 0.2500 0.2857  plane waves:    6080
 k-point 41 :  -0.2000 0.2500 0.2857  plane waves:    6101
 k-point 42 :   0.0000 0.5000 0.2857  plane waves:    6085
 k-point 43 :   0.2000 0.5000 0.2857  plane waves:    6075
 k-point 44 :   0.4000 0.5000 0.2857  plane waves:    6080
 k-point 45 :  -0.4000 0.5000 0.2857  plane waves:    6087
 k-point 46 :  -0.2000 0.5000 0.2857  plane waves:    6095
 k-point 47 :   0.0000-0.2500 0.2857  plane waves:    6082
 k-point 48 :   0.2000-0.2500 0.2857  plane waves:    6074
 k-point 49 :   0.4000-0.2500 0.2857  plane waves:    6090
 k-point 50 :  -0.4000-0.2500 0.2857  plane waves:    6096
 k-point 51 :  -0.2000-0.2500 0.2857  plane waves:    6095
 k-point 52 :   0.0000 0.0000 0.4286  plane waves:    6056
 k-point 53 :   0.2000 0.0000 0.4286  plane waves:    6064
 k-point 54 :   0.4000 0.0000 0.4286  plane waves:    6092
 k-point 55 :  -0.4000 0.0000 0.4286  plane waves:    6104
 k-point 56 :  -0.2000 0.0000 0.4286  plane waves:    6079
 k-point 57 :   0.0000 0.2500 0.4286  plane waves:    6069
 k-point 58 :   0.2000 0.2500 0.4286  plane waves:    6081
 k-point 59 :   0.4000 0.2500 0.4286  plane waves:    6072
 k-point 60 :  -0.4000 0.2500 0.4286  plane waves:    6079
 k-point 61 :  -0.2000 0.2500 0.4286  plane waves:    6084
 k-point 62 :   0.0000 0.5000 0.4286  plane waves:    6072
 k-point 63 :   0.2000 0.5000 0.4286  plane waves:    6086
 k-point 64 :   0.4000 0.5000 0.4286  plane waves:    6076
 k-point 65 :  -0.4000 0.5000 0.4286  plane waves:    6077
 k-point 66 :  -0.2000 0.5000 0.4286  plane waves:    6088
 k-point 67 :   0.0000-0.2500 0.4286  plane waves:    6073
 k-point 68 :   0.2000-0.2500 0.4286  plane waves:    6067
 k-point 69 :   0.4000-0.2500 0.4286  plane waves:    6078
 k-point 70 :  -0.4000-0.2500 0.4286  plane waves:    6082
 k-point 71 :  -0.2000-0.2500 0.4286  plane waves:    6081

 maximum and minimum number of plane-waves per node :      1567     1495

 maximum number of plane-waves:      6115
 maximum index in each direction: 
   IXMAX=   12   IYMAX=   15   IZMAX=    9
   IXMIN=  -12   IYMIN=  -15   IZMIN=  -10


 parallel 3D FFT for wavefunctions:
    minimum data exchange during FFTs selected (reduces bandwidth)
 parallel 3D FFT for charge:
    minimum data exchange during FFTs selected (reduces bandwidth)


 total amount of memory used by VASP MPI-rank0    87730. kBytes
=======================================================================

   base      :      30000. kBytes
   nonl-proj :      14216. kBytes
   fftplans  :       3949. kBytes
   grid      :       4195. kBytes
   one-center:         18. kBytes
   wavefun   :      35352. kBytes
 
     INWAV:  cpu time    1.6817: real time    1.6959
 Broyden mixing: mesh for mixing (old mesh)
   NGX = 23   NGY = 29   NGZ = 19
  (NGX  = 70   NGY  = 84   NGZ  = 54)
  gives a total of  12673 points

 charge density for first step will be calculated from the start-wavefunctions


--------------------------------------------------------------------------------------------------------


 Maximum index for augmentation-charges         3496 (set IRDMAX)


--------------------------------------------------------------------------------------------------------


 initial charge from wavefunction
 First call to EWALD:  gamma=   0.302
 Maximum number of real-space cells 3x 2x 4
 Maximum number of reciprocal cells 3x 3x 2

    FEWALD:  cpu time    0.0020: real time    0.0016


--------------------------------------- Iteration      1(   1)  ---------------------------------------


    POTLOK:  cpu time    0.0310: real time    0.0312
    SETDIJ:  cpu time    0.2770: real time    0.2770
     EDDAV:  cpu time    6.9369: real time    6.9496
       DOS:  cpu time    0.0030: real time    0.0029
    CHARGE:  cpu time    0.3110: real time    0.3104
    MIXING:  cpu time    0.0010: real time    0.0011
    --------------------------------------------
      LOOP:  cpu time    7.5598: real time    7.5721

 eigenvalue-minimisations  : 12448
 total energy-change (2. order) :-0.6739711E+02  (-0.3970045E+02)
 number of electron      48.0000000 magnetization       0.0000001
 augmentation part       -0.9966948 magnetization      -0.0000000

 Broyden mixing:
  rms(total) = 0.20795E+01    rms(broyden)= 0.20794E+01
  rms(prec ) = 0.22298E+01
  weight for this iteration     100.00

 Free energy of the ion-electron system (eV)
  ---------------------------------------------------
  alpha Z        PSCENC =        41.22194587
  Ewald energy   TEWEN  =      -985.81644204
  -Hartree energ DENC   =      -646.11305534
  -exchange      EXHF   =         0.00000000
  -V(xc)+E(xc)   XCENC  =        26.91062107
  PAW double counting   =     12780.94223871   -12679.62816528
  entropy T*S    EENTRO =        -0.00035087
  eigenvalues    EBANDS =      -106.21016114
  atomic energy  EATOM  =      1501.29626343
  Solvation  Ediel_sol  =         0.00000000
  ---------------------------------------------------
  free energy    TOTEN  =       -67.39710557 eV

  energy without entropy =      -67.39675470  energy(sigma->0) =      -67.39693013


--------------------------------------------------------------------------------------------------------




--------------------------------------- Iteration      1(   2)  ---------------------------------------


    POTLOK:  cpu time    0.0270: real time    0.0276
    SETDIJ:  cpu time    0.2780: real time    0.2775
     EDDAV:  cpu time    7.7458: real time    7.7737
       DOS:  cpu time    0.0030: real time    0.0030
    CHARGE:  cpu time    0.3090: real time    0.3101
    MIXING:  cpu time    0.0010: real time    0.0009
    --------------------------------------------
      LOOP:  cpu time    8.3637: real time    8.3928

 eigenvalue-minimisations  : 14216
 total energy-change (2. order) :-0.7269621E+01  (-0.7985766E+01)
 number of electron      48.0000000 magnetization       0.0000000
 augmentation part       -0.9501079 magnetization       0.0000000

 Broyden mixing:
  rms(total) = 0.18946E+01    rms(broyden)= 0.18946E+01
  rms(prec ) = 0.19124E+01
  weight for this iteration     100.00

 eigenvalues of (default mixing * dielectric matrix)
  average eigenvalue GAMMA=   0.9647
  0.9647

 Free energy of the ion-electron system (eV)
  ---------------------------------------------------
  alpha Z        PSCENC =        41.22194587
  Ewald energy   TEWEN  =      -985.81644204
  -Hartree energ DENC   =      -630.88317052
  -exchange      EXHF   =         0.00000000
  -V(xc)+E(xc)   XCENC  =        26.26690283
  PAW double counting   =     10842.33988833   -10740.86075810
  entropy T*S    EENTRO =        -0.00015179
  eigenvalues    EBANDS =      -128.23120450
  atomic energy  EATOM  =      1501.29626343
  Solvation  Ediel_sol  =         0.00000000
  ---------------------------------------------------
  free energy    TOTEN  =       -74.66672648 eV

  energy without entropy =      -74.66657469  energy(sigma->0) =      -74.66665059


--------------------------------------------------------------------------------------------------------




--------------------------------------- Iteration      1(   3)  ---------------------------------------


    POTLOK:  cpu time    0.0280: real time    0.0279
    SETDIJ:  cpu time    0.2770: real time    0.2769
     EDDAV:  cpu time    7.6998: real time    7.7184
       DOS:  cpu time    0.0030: real time    0.0030
    CHARGE:  cpu time    0.3080: real time    0.3169
    MIXING:  cpu time    0.0010: real time    0.0008
    --------------------------------------------
      LOOP:  cpu time    8.3167: real time    8.3439

 eigenvalue-minimisations  : 14136
 total energy-change (2. order) :-0.1700764E+00  (-0.2648499E+00)
 number of electron      48.0000000 magnetization      -0.0000000
 augmentation part       -0.9304969 magnetization      -0.0000000

 Broyden mixing:
  rms(total) = 0.12476E+01    rms(broyden)= 0.12476E+01
  rms(prec ) = 0.12554E+01
  weight for this iteration     100.00

 eigenvalues of (default mixing * dielectric matrix)
  average eigenvalue GAMMA=   1.7730
  0.9617  2.5844

 Free energy of the ion-electron system (eV)
  ---------------------------------------------------
  alpha Z        PSCENC =        41.22194587
  Ewald energy   TEWEN  =      -985.81644204
  -Hartree energ DENC   =      -635.35843788
  -exchange      EXHF   =         0.00000000
  -V(xc)+E(xc)   XCENC  =        26.48240022
  PAW double counting   =      8449.99315714    -8348.57759410
  entropy T*S    EENTRO =        -0.00029945
  eigenvalues    EBANDS =      -124.07779611
  atomic energy  EATOM  =      1501.29626343
  Solvation  Ediel_sol  =         0.00000000
  ---------------------------------------------------
  free energy    TOTEN  =       -74.83680291 eV

  energy without entropy =      -74.83650346  energy(sigma->0) =      -74.83665319


--------------------------------------------------------------------------------------------------------




--------------------------------------- Iteration      1(   4)  ---------------------------------------


    POTLOK:  cpu time    0.0320: real time    0.0323
    SETDIJ:  cpu time    0.2780: real time    0.2772
     EDDAV:  cpu time    7.4569: real time    7.4707
       DOS:  cpu time    0.0040: real time    0.0031
    CHARGE:  cpu time    0.3100: real time    0.3168
    MIXING:  cpu time    0.0010: real time    0.0009
    --------------------------------------------
      LOOP:  cpu time    8.0818: real time    8.1010

 eigenvalue-minimisations  : 13624
 total energy-change (2. order) :-0.1562219E-01  (-0.4924513E-01)
 number of electron      48.0000000 magnetization      -0.0000000
 augmentation part       -0.9628437 magnetization      -0.0000000

 Broyden mixing:
  rms(total) = 0.10064E+00    rms(broyden)= 0.10063E+00
  rms(prec ) = 0.19266E+00
  weight for this iteration     100.00

 eigenvalues of (default mixing * dielectric matrix)
  average eigenvalue GAMMA=   1.4481
  2.5501  0.8971  0.8971

 Free energy of the ion-electron system (eV)
  ---------------------------------------------------
  alpha Z        PSCENC =        41.22194587
  Ewald energy   TEWEN  =      -985.81644204
  -Hartree energ DENC   =      -641.43114688
  -exchange      EXHF   =         0.00000000
  -V(xc)+E(xc)   XCENC  =        26.86965717
  PAW double counting   =      4803.71540560    -4702.50968576
  entropy T*S    EENTRO =        -0.00032319
  eigenvalues    EBANDS =      -118.19809931
  atomic energy  EATOM  =      1501.29626343
  Solvation  Ediel_sol  =         0.00000000
  ---------------------------------------------------
  free energy    TOTEN  =       -74.85242510 eV

  energy without entropy =      -74.85210191  energy(sigma->0) =      -74.85226351


--------------------------------------------------------------------------------------------------------




--------------------------------------- Iteration      1(   5)  ---------------------------------------


    POTLOK:  cpu time    0.0270: real time    0.0276
    SETDIJ:  cpu time    0.2770: real time    0.2770
     EDDAV:  cpu time    7.4479: real time    7.4681
       DOS:  cpu time    0.0030: real time    0.0031
    CHARGE:  cpu time    0.3080: real time    0.3086
    MIXING:  cpu time    0.0010: real time    0.0010
    --------------------------------------------
      LOOP:  cpu time    8.0638: real time    8.0855

 eigenvalue-minimisations  : 13416
 total energy-change (2. order) : 0.3271720E-01  (-0.8788192E-02)
 number of electron      48.0000000 magnetization      -0.0000000
 augmentation part       -0.9599580 magnetization      -0.0000000

 Broyden mixing:
  rms(total) = 0.69155E-01    rms(broyden)= 0.69154E-01
  rms(prec ) = 0.96499E-01
  weight for this iteration     100.00

 eigenvalues of (default mixing * dielectric matrix)
  average eigenvalue GAMMA=   1.3729
  2.4998  0.9634  0.9634  1.0649

 Free energy of the ion-electron system (eV)
  ---------------------------------------------------
  alpha Z        PSCENC =        41.22194587
  Ewald energy   TEWEN  =      -985.81644204
  -Hartree energ DENC   =      -638.79666596
  -exchange      EXHF   =         0.00000000
  -V(xc)+E(xc)   XCENC  =        26.74004206
  PAW double counting   =      4712.76914073    -4611.55241662
  entropy T*S    EENTRO =        -0.00035591
  eigenvalues    EBANDS =      -120.68121947
  atomic energy  EATOM  =      1501.29626343
  Solvation  Ediel_sol  =         0.00000000
  ---------------------------------------------------
  free energy    TOTEN  =       -74.81970790 eV

  energy without entropy =      -74.81935199  energy(sigma->0) =      -74.81952994


--------------------------------------------------------------------------------------------------------




--------------------------------------- Iteration      1(   6)  ---------------------------------------


    POTLOK:  cpu time    0.0280: real time    0.0279
    SETDIJ:  cpu time    0.2780: real time    0.2773
     EDDAV:  cpu time    7.4179: real time    7.4313
       DOS:  cpu time    0.0030: real time    0.0029
    CHARGE:  cpu time    0.3080: real time    0.3092
    MIXING:  cpu time    0.0010: real time    0.0010
    --------------------------------------------
      LOOP:  cpu time    8.0358: real time    8.0496

 eigenvalue-minimisations  : 13480
 total energy-change (2. order) : 0.3685715E-02  (-0.5799732E-02)
 number of electron      48.0000000 magnetization      -0.0000000
 augmentation part       -0.9487931 magnetization      -0.0000000

 Broyden mixing:
  rms(total) = 0.18255E-01    rms(broyden)= 0.18247E-01
  rms(prec ) = 0.25066E-01
  weight for this iteration     100.00

 eigenvalues of (default mixing * dielectric matrix)
  average eigenvalue GAMMA=   1.3201
  2.4612  1.2843  0.8420  1.0064  1.0064

 Free energy of the ion-electron system (eV)
  ---------------------------------------------------
  alpha Z        PSCENC =        41.22194587
  Ewald energy   TEWEN  =      -985.81644204
  -Hartree energ DENC   =      -637.47527738
  -exchange      EXHF   =         0.00000000
  -V(xc)+E(xc)   XCENC  =        26.65560027
  PAW double counting   =      4773.74726402    -4672.50961487
  entropy T*S    EENTRO =        -0.00034156
  eigenvalues    EBANDS =      -121.93541992
  atomic energy  EATOM  =      1501.29626343
  Solvation  Ediel_sol  =         0.00000000
  ---------------------------------------------------
  free energy    TOTEN  =       -74.81602219 eV

  energy without entropy =      -74.81568062  energy(sigma->0) =      -74.81585140


--------------------------------------------------------------------------------------------------------




--------------------------------------- Iteration      1(   7)  ---------------------------------------


    POTLOK:  cpu time    0.0280: real time    0.0276
    SETDIJ:  cpu time    0.2770: real time    0.2770
     EDDAV:  cpu time    7.2069: real time    7.2269
       DOS:  cpu time    0.0030: real time    0.0030
    CHARGE:  cpu time    0.3080: real time    0.3087
    MIXING:  cpu time    0.0010: real time    0.0010
    --------------------------------------------
      LOOP:  cpu time    7.8238: real time    7.8443

 eigenvalue-minimisations  : 13280
 total energy-change (2. order) : 0.4116873E-04  (-0.3463967E-03)
 number of electron      48.0000000 magnetization      -0.0000000
 augmentation part       -0.9486154 magnetization       0.0000000

 Broyden mixing:
  rms(total) = 0.98471E-02    rms(broyden)= 0.98461E-02
  rms(prec ) = 0.10735E-01
  weight for this iteration     100.00

 eigenvalues of (default mixing * dielectric matrix)
  average eigenvalue GAMMA=   1.3524
  2.5123  1.7868  0.9785  0.9785  0.8580  1.0006

 Free energy of the ion-electron system (eV)
  ---------------------------------------------------
  alpha Z        PSCENC =        41.22194587
  Ewald energy   TEWEN  =      -985.81644204
  -Hartree energ DENC   =      -637.75476055
  -exchange      EXHF   =         0.00000000
  -V(xc)+E(xc)   XCENC  =        26.66474508
  PAW double counting   =      4788.90484126    -4687.66376077
  entropy T*S    EENTRO =        -0.00035041
  eigenvalues    EBANDS =      -121.66846290
  atomic energy  EATOM  =      1501.29626343
  Solvation  Ediel_sol  =         0.00000000
  ---------------------------------------------------
  free energy    TOTEN  =       -74.81598102 eV

  energy without entropy =      -74.81563061  energy(sigma->0) =      -74.81580581


--------------------------------------------------------------------------------------------------------




--------------------------------------- Iteration      1(   8)  ---------------------------------------


    POTLOK:  cpu time    0.0280: real time    0.0276
    SETDIJ:  cpu time    0.2770: real time    0.2771
     EDDAV:  cpu time    7.5948: real time    7.6073
       DOS:  cpu time    0.0030: real time    0.0031
    CHARGE:  cpu time    0.3090: real time    0.3088
    MIXING:  cpu time    0.0010: real time    0.0010
    --------------------------------------------
      LOOP:  cpu time    8.2128: real time    8.2249

 eigenvalue-minimisations  : 13928
 total energy-change (2. order) :-0.2535070E-04  (-0.4524640E-04)
 number of electron      48.0000000 magnetization       0.0000000
 augmentation part       -0.9490699 magnetization       0.0000000

 Broyden mixing:
  rms(total) = 0.33051E-02    rms(broyden)= 0.33050E-02
  rms(prec ) = 0.44819E-02
  weight for this iteration     100.00

 eigenvalues of (default mixing * dielectric matrix)
  average eigenvalue GAMMA=   1.3399
  2.5325  1.9037  0.9682  0.9682  1.1982  1.0248  0.7835

 Free energy of the ion-electron system (eV)
  ---------------------------------------------------
  alpha Z        PSCENC =        41.22194587
  Ewald energy   TEWEN  =      -985.81644204
  -Hartree energ DENC   =      -637.77258770
  -exchange      EXHF   =         0.00000000
  -V(xc)+E(xc)   XCENC  =        26.66379714
  PAW double counting   =      4769.94026409    -4668.69800819
  entropy T*S    EENTRO =        -0.00034939
  eigenvalues    EBANDS =      -121.65088958
  atomic energy  EATOM  =      1501.29626343
  Solvation  Ediel_sol  =         0.00000000
  ---------------------------------------------------
  free energy    TOTEN  =       -74.81600637 eV

  energy without entropy =      -74.81565698  energy(sigma->0) =      -74.81583167


--------------------------------------------------------------------------------------------------------




--------------------------------------- Iteration      1(   9)  ---------------------------------------


    POTLOK:  cpu time    0.0280: real time    0.0277
    SETDIJ:  cpu time    0.2770: real time    0.2771
     EDDAV:  cpu time    7.4849: real time    7.5046
       DOS:  cpu time    0.0030: real time    0.0030
    CHARGE:  cpu time    0.3080: real time    0.3090
    MIXING:  cpu time    0.0020: real time    0.0011
    --------------------------------------------
      LOOP:  cpu time    8.1028: real time    8.1225

 eigenvalue-minimisations  : 13936
 total energy-change (2. order) : 0.7908794E-05  (-0.3469625E-05)
 number of electron      48.0000000 magnetization       0.0000000
 augmentation part       -0.9490393 magnetization       0.0000000

 Broyden mixing:
  rms(total) = 0.12566E-02    rms(broyden)= 0.12565E-02
  rms(prec ) = 0.16048E-02
  weight for this iteration     100.00

 eigenvalues of (default mixing * dielectric matrix)
  average eigenvalue GAMMA=   1.3430
  2.5599  2.1638  0.9809  0.9809  1.3159  0.7787  0.9821  0.9821

 Free energy of the ion-electron system (eV)
  ---------------------------------------------------
  alpha Z        PSCENC =        41.22194587
  Ewald energy   TEWEN  =      -985.81644204
  -Hartree energ DENC   =      -637.75326171
  -exchange      EXHF   =         0.00000000
  -V(xc)+E(xc)   XCENC  =        26.66169202
  PAW double counting   =      4769.72051983    -4668.47727438
  entropy T*S    EENTRO =        -0.00035018
  eigenvalues    EBANDS =      -121.66909131
  atomic energy  EATOM  =      1501.29626343
  Solvation  Ediel_sol  =         0.00000000
  ---------------------------------------------------
  free energy    TOTEN  =       -74.81599846 eV

  energy without entropy =      -74.81564828  energy(sigma->0) =      -74.81582337


--------------------------------------------------------------------------------------------------------




--------------------------------------- Iteration      1(  10)  ---------------------------------------


    POTLOK:  cpu time    0.0270: real time    0.0276
    SETDIJ:  cpu time    0.2770: real time    0.2768
     EDDAV:  cpu time    7.4459: real time    7.4691
       DOS:  cpu time    0.0030: real time    0.0031
    CHARGE:  cpu time    0.3080: real time    0.3084
    MIXING:  cpu time    0.0020: real time    0.0011
    --------------------------------------------
      LOOP:  cpu time    8.0628: real time    8.0861

 eigenvalue-minimisations  : 13912
 total energy-change (2. order) :-0.1861151E-05  (-0.1971568E-05)
 number of electron      48.0000000 magnetization      -0.0000000
 augmentation part       -0.9489172 magnetization      -0.0000000

 Broyden mixing:
  rms(total) = 0.51833E-03    rms(broyden)= 0.51802E-03
  rms(prec ) = 0.71976E-03
  weight for this iteration     100.00

 eigenvalues of (default mixing * dielectric matrix)
  average eigenvalue GAMMA=   1.3417
  2.5435  2.1676  1.5086  0.9730  0.9730  0.7789  1.0100  1.0603  1.0603

 Free energy of the ion-electron system (eV)
  ---------------------------------------------------
  alpha Z        PSCENC =        41.22194587
  Ewald energy   TEWEN  =      -985.81644204
  -Hartree energ DENC   =      -637.73636942
  -exchange      EXHF   =         0.00000000
  -V(xc)+E(xc)   XCENC  =        26.66036503
  PAW double counting   =      4768.28896503    -4667.04525519
  entropy T*S    EENTRO =        -0.00034996
  eigenvalues    EBANDS =      -121.68512308
  atomic energy  EATOM  =      1501.29626343
  Solvation  Ediel_sol  =         0.00000000
  ---------------------------------------------------
  free energy    TOTEN  =       -74.81600032 eV

  energy without entropy =      -74.81565036  energy(sigma->0) =      -74.81582534


--------------------------------------------------------------------------------------------------------




--------------------------------------- Iteration      1(  11)  ---------------------------------------


    POTLOK:  cpu time    0.0270: real time    0.0416
    SETDIJ:  cpu time    0.2780: real time    0.2769
     EDDAV:  cpu time    7.8848: real time    7.8962
       DOS:  cpu time    0.0030: real time    0.0031
    CHARGE:  cpu time    0.3090: real time    0.3097
    MIXING:  cpu time    0.0010: real time    0.0012
    --------------------------------------------
      LOOP:  cpu time    8.5027: real time    8.5287

 eigenvalue-minimisations  : 15000
 total energy-change (2. order) : 0.1541321E-07  (-0.1349499E-06)
 number of electron      48.0000000 magnetization       0.0000000
 augmentation part       -0.9488946 magnetization       0.0000000

 Broyden mixing:
  rms(total) = 0.22518E-03    rms(broyden)= 0.22463E-03
  rms(prec ) = 0.32212E-03
  weight for this iteration     100.00

 eigenvalues of (default mixing * dielectric matrix)
  average eigenvalue GAMMA=   1.3744
  2.5335  2.2572  2.1129  0.9819  0.9819  1.0391  1.0391  0.7679  1.0152  1.0152

 Free energy of the ion-electron system (eV)
  ---------------------------------------------------
  alpha Z        PSCENC =        41.22194587
  Ewald energy   TEWEN  =      -985.81644204
  -Hartree energ DENC   =      -637.73552809
  -exchange      EXHF   =         0.00000000
  -V(xc)+E(xc)   XCENC  =        26.66032958
  PAW double counting   =      4768.90186722    -4667.65815256
  entropy T*S    EENTRO =        -0.00035003
  eigenvalues    EBANDS =      -121.68593370
  atomic energy  EATOM  =      1501.29626343
  Solvation  Ediel_sol  =         0.00000000
  ---------------------------------------------------
  free energy    TOTEN  =       -74.81600030 eV

  energy without entropy =      -74.81565027  energy(sigma->0) =      -74.81582529


--------------------------------------------------------------------------------------------------------




--------------------------------------- Iteration      1(  12)  ---------------------------------------


    POTLOK:  cpu time    0.0280: real time    0.0279
    SETDIJ:  cpu time    0.2770: real time    0.2769
     EDDAV:  cpu time    7.0469: real time    7.0667
       DOS:  cpu time    0.0040: real time    0.0031
    --------------------------------------------
      LOOP:  cpu time    7.3559: real time    7.3745

 eigenvalue-minimisations  : 12760
 total energy-change (2. order) :-0.5514767E-07  (-0.4353486E-07)
 number of electron      48.0000000 magnetization       0.0000000
 augmentation part       -0.9488946 magnetization       0.0000000

 Free energy of the ion-electron system (eV)
  ---------------------------------------------------
  alpha Z        PSCENC =        41.22194587
  Ewald energy   TEWEN  =      -985.81644204
  -Hartree energ DENC   =      -637.73879145
  -exchange      EXHF   =         0.00000000
  -V(xc)+E(xc)   XCENC  =        26.66046146
  PAW double counting   =      4769.17234959    -4667.92867138
  entropy T*S    EENTRO =        -0.00035003
  eigenvalues    EBANDS =      -121.68276581
  atomic energy  EATOM  =      1501.29626343
  Solvation  Ediel_sol  =         0.00000000
  ---------------------------------------------------
  free energy    TOTEN  =       -74.81600036 eV

  energy without entropy =      -74.81565033  energy(sigma->0) =      -74.81582534


--------------------------------------------------------------------------------------------------------




 average (electrostatic) potential at core
  the test charge radii are     0.6991  0.9892
  (the norm of the test charge is              1.0000)
       1 -52.0399       2 -50.7301       3 -50.2831       4 -50.8888       5 -50.7226
       6 -51.3851       7 -85.7613       8 -86.1516       9 -85.3749      10 -85.5743
      11 -85.6809      12 -85.7924
 
 
 
 E-fermi :   3.8732     XC(G=0):  -8.8266     alpha+bet :-10.0871


 spin component 1

 k-point     1 :       0.0000    0.0000    0.0000
  band No.  band energies     occupation 
      1     -13.3260      1.00000
      2     -10.5486      1.00000
      3      -9.8144      1.00000
      4      -8.7637      1.00000
      5      -7.3891      1.00000
      6      -5.8658      1.00000
      7      -4.7605      1.00000
      8      -4.3795      1.00000
      9      -3.4225      1.00000
     10      -2.6300      1.00000
     11      -2.3626      1.00000
     12      -1.7911      1.00000
     13      -1.2834      1.00000
     14      -0.7153      1.00000
     15      -0.0143      1.00000
     16       0.1605      1.00000
     17       0.4411      1.00000
     18       0.7857      1.00000
     19       1.0961      1.00000
     20       1.7271      1.00000
     21       2.2123      1.00000
     22       2.5928      1.00000
     23       2.8627      1.00000
     24       3.3669      1.00000
     25       4.9866      0.00000
     26       5.1026      0.00000
     27       5.4942      0.00000
     28       5.6153      0.00000
     29       6.2699      0.00000
     30       6.7974      0.00000
     31       7.1924      0.00000
     32       7.9418      0.00000
     33       8.1225      0.00000
     34       8.5429      0.00000
     35       9.0751      0.00000
     36       9.3825      0.00000
     37       9.6535      0.00000
     38      10.1893      0.00000
     39      10.6856      0.00000
     40      10.8779      0.00000

 k-point     2 :       0.2000    0.0000   -0.0000
  band No.  band energies     occupation 
      1     -13.3001      1.00000
      2     -10.5525      1.00000
      3     -10.0493      1.00000
      4      -8.5459      1.00000
      5      -7.3841      1.00000
      6      -5.7065      1.00000
      7      -4.8240      1.00000
      8      -4.2793      1.00000
      9      -3.5069      1.00000
     10      -2.7191      1.00000
     11      -2.1878      1.00000
     12      -1.8785      1.00000
     13      -1.4465      1.00000
     14      -0.6919      1.00000
     15      -0.3672      1.00000
     16       0.0886      1.00000
     17       0.5108      1.00000
     18       0.7533      1.00000
     19       1.1046      1.00000
     20       1.8020      1.00000
     21       2.3711      1.00000
     22       2.7530      1.00000
     23       2.9725      1.00000
     24       3.4402      1.00000
     25       4.6242      0.00000
     26       5.2665      0.00000
     27       5.3907      0.00000
     28       5.7365      0.00000
     29       6.3941      0.00000
     30       6.8058      0.00000
     31       7.4978      0.00000
     32       7.8921      0.00000
     33       8.1112      0.00000
     34       8.5461      0.00000
     35       9.0063      0.00000
     36       9.1779      0.00000
     37       9.7188      0.00000
     38      10.1415      0.00000
     39      10.5970      0.00000
     40      10.6451      0.00000

 k-point     3 :       0.4000    0.0000   -0.0000
  band No.  band energies     occupation 
      1     -13.2558      1.00000
      2     -10.5768      1.00000
      3     -10.3054      1.00000
      4      -8.3147      1.00000
      5      -7.3750      1.00000
      6      -5.4057      1.00000
      7      -4.8147      1.00000
      8      -4.1809      1.00000
      9      -3.6689      1.00000
     10      -2.8471      1.00000
     11      -2.0568      1.00000
     12      -1.9396      1.00000
     13      -1.7236      1.00000
     14      -0.8808      1.00000
     15      -0.6091      1.00000
     16       0.1067      1.00000
     17       0.5229      1.00000
     18       0.6887      1.00000
     19       1.2372      1.00000
     20       1.9373      1.00000
     21       2.3772      1.00000
     22       2.9304      1.00000
     23       3.1341      1.00000
     24       3.5777      1.00000
     25       4.4088      0.00000
     26       5.1306      0.00000
     27       5.4596      0.00000
     28       5.9951      0.00000
     29       6.5305      0.00000
     30       6.7504      0.00000
     31       7.7001      0.00000
     32       7.8272      0.00000
     33       8.4317      0.00000
     34       8.5839      0.00000
     35       8.7416      0.00000
     36       9.0649      0.00000
     37       9.6636      0.00000
     38      10.1111      0.00000
     39      10.4891      0.00000
     40      10.7127      0.00000

 k-point     4 :       0.0000    0.2500    0.0000
  band No.  band energies     occupation 
      1     -13.3092      1.00000
      2     -10.6728      1.00000
      3      -9.8314      1.00000
      4      -8.5612      1.00000
      5      -7.2979      1.00000
      6      -5.8618      1.00000
      7      -5.1697      1.00000
      8      -4.2696      1.00000
      9      -3.3020      1.00000
     10      -2.7287      1.00000
     11      -2.3517      1.00000
     12      -1.8681      1.00000
     13      -1.0796      1.00000
     14      -0.7080      1.00000
     15      -0.2172      1.00000
     16       0.0443      1.00000
     17       0.4409      1.00000
     18       0.9253      1.00000
     19       1.3704      1.00000
     20       1.6853      1.00000
     21       2.2325      1.00000
     22       2.6714      1.00000
     23       3.0099      1.00000
     24       3.3989      1.00000
     25       4.4430      0.00000
     26       4.8544      0.00000
     27       5.5480      0.00000
     28       6.2208      0.00000
     29       6.2696      0.00000
     30       6.8643      0.00000
     31       7.2979      0.00000
     32       7.5661      0.00000
     33       8.2029      0.00000
     34       8.3710      0.00000
     35       8.8918      0.00000
     36       9.3046      0.00000
     37       9.8171      0.00000
     38      10.0241      0.00000
     39      10.2651      0.00000
     40      10.6509      0.00000

 k-point     5 :       0.2000    0.2500    0.0000
  band No.  band energies     occupation 
      1     -13.2838      1.00000
      2     -10.6522      1.00000
      3     -10.0864      1.00000
      4      -8.3228      1.00000
      5      -7.3130      1.00000
      6      -5.7493      1.00000
      7      -5.0962      1.00000
      8      -4.3272      1.00000
      9      -3.3427      1.00000
     10      -2.5981      1.00000
     11      -2.3493      1.00000
     12      -1.9811      1.00000
     13      -1.3468      1.00000
     14      -0.6411      1.00000
     15      -0.5018      1.00000
     16      -0.0625      1.00000
     17       0.6399      1.00000
     18       0.9390      1.00000
     19       1.2983      1.00000
     20       1.7292      1.00000
     21       2.2615      1.00000
     22       2.6660      1.00000
     23       3.2265      1.00000
     24       3.6808      1.00000
     25       4.5660      0.00000
     26       4.8836      0.00000
     27       5.1891      0.00000
     28       5.8677      0.00000
     29       6.4875      0.00000
     30       6.8561      0.00000
     31       7.5793      0.00000
     32       7.8233      0.00000
     33       7.9639      0.00000
     34       8.4860      0.00000
     35       8.8541      0.00000
     36       9.3902      0.00000
     37       9.5958      0.00000
     38      10.0020      0.00000
     39      10.4571      0.00000
     40      10.7744      0.00000

 k-point     6 :       0.4000    0.2500    0.0000
  band No.  band energies     occupation 
      1     -13.2393      1.00000
      2     -10.6408      1.00000
      3     -10.3698      1.00000
      4      -8.0474      1.00000
      5      -7.3610      1.00000
      6      -5.5443      1.00000
      7      -4.9447      1.00000
      8      -4.2708      1.00000
      9      -3.5233      1.00000
     10      -2.7570      1.00000
     11      -2.2826      1.00000
     12      -1.8804      1.00000
     13      -1.7403      1.00000
     14      -0.8912      1.00000
     15      -0.5674      1.00000
     16       0.1248      1.00000
     17       0.5090      1.00000
     18       0.9162      1.00000
     19       1.2453      1.00000
     20       1.7168      1.00000
     21       2.5338      1.00000
     22       2.8048      1.00000
     23       3.3540      1.00000
     24       3.8081      1.00000
     25       4.4985      0.00000
     26       4.9430      0.00000
     27       5.2143      0.00000
     28       5.6058      0.00000
     29       6.5537      0.00000
     30       6.9886      0.00000
     31       7.5570      0.00000
     32       8.0615      0.00000
     33       8.2273      0.00000
     34       8.6418      0.00000
     35       8.8947      0.00000
     36       9.1601      0.00000
     37       9.5609      0.00000
     38      10.2003      0.00000
     39      10.4873      0.00000
     40      10.6060      0.00000

 k-point     7 :      -0.4000    0.2500    0.0000
  band No.  band energies     occupation 
      1     -13.2387      1.00000
      2     -10.6743      1.00000
      3     -10.3311      1.00000
      4      -8.0451      1.00000
      5      -7.3763      1.00000
      6      -5.5209      1.00000
      7      -5.0114      1.00000
      8      -4.1665      1.00000
      9      -3.4484      1.00000
     10      -3.0717      1.00000
     11      -2.1829      1.00000
     12      -1.8268      1.00000
     13      -1.6368      1.00000
     14      -0.8871      1.00000
     15      -0.5777      1.00000
     16       0.1364      1.00000
     17       0.4024      1.00000
     18       0.8050      1.00000
     19       1.3826      1.00000
     20       1.8403      1.00000
     21       2.4019      1.00000
     22       2.9264      1.00000
     23       3.2441      1.00000
     24       3.6415      1.00000
     25       4.4229      0.00000
     26       4.8802      0.00000
     27       5.4877      0.00000
     28       5.8027      0.00000
     29       6.6014      0.00000
     30       6.9558      0.00000
     31       7.5550      0.00000
     32       7.7520      0.00000
     33       8.2657      0.00000
     34       8.6995      0.00000
     35       8.9611      0.00000
     36       9.2840      0.00000
     37       9.5220      0.00000
     38      10.0995      0.00000
     39      10.1975      0.00000
     40      10.8349      0.00000

 k-point     8 :      -0.2000    0.2500    0.0000
  band No.  band energies     occupation 
      1     -13.2829      1.00000
      2     -10.6827      1.00000
      3     -10.0431      1.00000
      4      -8.3287      1.00000
      5      -7.3349      1.00000
      6      -5.7015      1.00000
      7      -5.1949      1.00000
      8      -4.1586      1.00000
      9      -3.4116      1.00000
     10      -2.8701      1.00000
     11      -2.2653      1.00000
     12      -1.8516      1.00000
     13      -1.1909      1.00000
     14      -0.7501      1.00000
     15      -0.3796      1.00000
     16      -0.0032      1.00000
     17       0.3929      1.00000
     18       0.8074      1.00000
     19       1.3851      1.00000
     20       1.7937      1.00000
     21       2.3495      1.00000
     22       2.9165      1.00000
     23       3.0137      1.00000
     24       3.4491      1.00000
     25       4.3188      0.00000
     26       4.7990      0.00000
     27       5.6264      0.00000
     28       6.1682      0.00000
     29       6.4457      0.00000
     30       6.7693      0.00000
     31       7.5103      0.00000
     32       7.7493      0.00000
     33       8.1375      0.00000
     34       8.5187      0.00000
     35       8.9291      0.00000
     36       9.2833      0.00000
     37       9.4952      0.00000
     38       9.9234      0.00000
     39      10.1753      0.00000
     40      10.7056      0.00000

 k-point     9 :       0.0000    0.5000    0.0000
  band No.  band energies     occupation 
      1     -13.2919      1.00000
      2     -10.7834      1.00000
      3      -9.8407      1.00000
      4      -8.3867      1.00000
      5      -7.1579      1.00000
      6      -5.8674      1.00000
      7      -5.5049      1.00000
      8      -4.2435      1.00000
      9      -3.2744      1.00000
     10      -2.7694      1.00000
     11      -2.2880      1.00000
     12      -1.9366      1.00000
     13      -0.9171      1.00000
     14      -0.6204      1.00000
     15      -0.4435      1.00000
     16      -0.0572      1.00000
     17       0.4454      1.00000
     18       1.0571      1.00000
     19       1.4152      1.00000
     20       1.6897      1.00000
     21       2.4359      1.00000
     22       2.8868      1.00000
     23       3.0351      1.00000
     24       3.5035      1.00000
     25       3.8618      0.78951
     26       4.6910      0.00000
     27       5.7271      0.00000
     28       6.0554      0.00000
     29       6.7090      0.00000
     30       7.0325      0.00000
     31       7.3357      0.00000
     32       7.4610      0.00000
     33       8.0050      0.00000
     34       8.2384      0.00000
     35       8.8142      0.00000
     36       9.1667      0.00000
     37       9.4648      0.00000
     38       9.7858      0.00000
     39      10.3186      0.00000
     40      10.8856      0.00000

 k-point    10 :       0.2000    0.5000    0.0000
  band No.  band energies     occupation 
      1     -13.2660      1.00000
      2     -10.7736      1.00000
      3     -10.0718      1.00000
      4      -8.1270      1.00000
      5      -7.2182      1.00000
      6      -5.8041      1.00000
      7      -5.3903      1.00000
      8      -4.2448      1.00000
      9      -3.3335      1.00000
     10      -2.7082      1.00000
     11      -2.4030      1.00000
     12      -1.8887      1.00000
     13      -1.1173      1.00000
     14      -0.7867      1.00000
     15      -0.4543      1.00000
     16      -0.1356      1.00000
     17       0.5438      1.00000
     18       0.9769      1.00000
     19       1.4236      1.00000
     20       1.7986      1.00000
     21       2.2845      1.00000
     22       3.0370      1.00000
     23       3.1624      1.00000
     24       3.6191      1.00000
     25       4.0804      0.00000
     26       4.6726      0.00000
     27       5.5718      0.00000
     28       5.7884      0.00000
     29       6.7521      0.00000
     30       7.0848      0.00000
     31       7.3798      0.00000
     32       7.7546      0.00000
     33       8.0311      0.00000
     34       8.4076      0.00000
     35       8.7045      0.00000
     36       9.2502      0.00000
     37       9.4456      0.00000
     38       9.7843      0.00000
     39      10.3816      0.00000
     40      10.8113      0.00000

 k-point    11 :       0.4000    0.5000    0.0000
  band No.  band energies     occupation 
      1     -13.2217      1.00000
      2     -10.7488      1.00000
      3     -10.3692      1.00000
      4      -7.7683      1.00000
      5      -7.3439      1.00000
      6      -5.7556      1.00000
      7      -5.0588      1.00000
      8      -4.2547      1.00000
      9      -3.3322      1.00000
     10      -3.0525      1.00000
     11      -2.2174      1.00000
     12      -1.9096      1.00000
     13      -1.5953      1.00000
     14      -0.9694      1.00000
     15      -0.4850      1.00000
     16       0.1639      1.00000
     17       0.4350      1.00000
     18       0.8956      1.00000
     19       1.2943      1.00000
     20       1.9473      1.00000
     21       2.2445      1.00000
     22       3.2416      1.00000
     23       3.3070      1.00000
     24       3.7371      1.00000
     25       4.5233      0.00000
     26       4.6598      0.00000
     27       5.1334      0.00000
     28       5.5495      0.00000
     29       6.6869      0.00000
     30       7.3016      0.00000
     31       7.5086      0.00000
[...]
     17       0.6749      1.00000
     18       1.2107      1.00000
     19       1.6682      1.00000
     20       1.9431      1.00000
     21       2.1020      1.00000
     22       2.8751      1.00000
     23       3.3218      1.00000
     24       3.7877      1.00000
     25       4.9247      0.00000
     26       5.0140      0.00000
     27       5.6894      0.00000
     28       6.1649      0.00000
     29       6.4788      0.00000
     30       6.7981      0.00000
     31       7.1418      0.00000
     32       7.4384      0.00000
     33       7.8415      0.00000
     34       8.4952      0.00000
     35       9.0109      0.00000
     36       9.4071      0.00000
     37       9.5286      0.00000
     38       9.8568      0.00000
     39      10.3287      0.00000
     40      10.5726      0.00000

 k-point    68 :       0.2000   -0.2500    0.4286
  band No.  band energies     occupation 
      1     -13.2206      1.00000
      2     -10.6272      1.00000
      3      -9.6657      1.00000
      4      -8.5610      1.00000
      5      -7.9242      1.00000
      6      -5.8201      1.00000
      7      -5.2797      1.00000
      8      -4.3462      1.00000
      9      -3.8492      1.00000
     10      -2.7354      1.00000
     11      -2.2854      1.00000
     12      -1.4169      1.00000
     13      -1.0917      1.00000
     14      -0.8375      1.00000
     15      -0.2387      1.00000
     16       0.1056      1.00000
     17       0.6142      1.00000
     18       1.1659      1.00000
     19       1.5392      1.00000
     20       1.9909      1.00000
     21       2.2418      1.00000
     22       2.7921      1.00000
     23       3.3411      1.00000
     24       3.7665      1.00000
     25       4.8321      0.00000
     26       4.9984      0.00000
     27       5.5959      0.00000
     28       6.2360      0.00000
     29       6.6689      0.00000
     30       7.0248      0.00000
     31       7.2739      0.00000
     32       7.7472      0.00000
     33       8.0784      0.00000
     34       8.2480      0.00000
     35       8.9908      0.00000
     36       9.2821      0.00000
     37       9.6532      0.00000
     38      10.0918      0.00000
     39      10.1669      0.00000
     40      10.2195      0.00000

 k-point    69 :       0.4000   -0.2500    0.4286
  band No.  band energies     occupation 
      1     -13.1936      1.00000
      2     -10.5939      1.00000
      3      -9.9562      1.00000
      4      -8.4387      1.00000
      5      -7.7393      1.00000
      6      -5.8321      1.00000
      7      -5.3039      1.00000
      8      -4.2821      1.00000
      9      -3.7549      1.00000
     10      -2.7693      1.00000
     11      -2.3176      1.00000
     12      -1.7910      1.00000
     13      -1.1942      1.00000
     14      -0.4744      1.00000
     15      -0.1064      1.00000
     16       0.2391      1.00000
     17       0.3475      1.00000
     18       1.0897      1.00000
     19       1.3428      1.00000
     20       2.0796      1.00000
     21       2.4015      1.00000
     22       2.8327      1.00000
     23       2.9819      1.00000
     24       3.7821      1.00000
     25       4.7597      0.00000
     26       5.0958      0.00000
     27       5.6620      0.00000
     28       6.3416      0.00000
     29       6.7899      0.00000
     30       7.1182      0.00000
     31       7.5277      0.00000
     32       7.8133      0.00000
     33       8.1692      0.00000
     34       8.3687      0.00000
     35       8.9877      0.00000
     36       9.3271      0.00000
     37       9.5483      0.00000
     38       9.8829      0.00000
     39      10.0597      0.00000
     40      10.4720      0.00000

 k-point    70 :      -0.4000   -0.2500    0.4286
  band No.  band energies     occupation 
      1     -13.1963      1.00000
      2     -10.6001      1.00000
      3      -9.9398      1.00000
      4      -8.3741      1.00000
      5      -7.7858      1.00000
      6      -5.9187      1.00000
      7      -5.4077      1.00000
      8      -4.2939      1.00000
      9      -3.3455      1.00000
     10      -2.8628      1.00000
     11      -2.3728      1.00000
     12      -1.9075      1.00000
     13      -1.1966      1.00000
     14      -0.4886      1.00000
     15      -0.2834      1.00000
     16       0.4472      1.00000
     17       0.5925      1.00000
     18       1.0000      1.00000
     19       1.3073      1.00000
     20       2.0749      1.00000
     21       2.3338      1.00000
     22       2.5987      1.00000
     23       3.1365      1.00000
     24       3.8540      0.91252
     25       4.7152      0.00000
     26       5.2949      0.00000
     27       5.7324      0.00000
     28       6.1222      0.00000
     29       6.7923      0.00000
     30       6.9708      0.00000
     31       7.5062      0.00000
     32       7.9205      0.00000
     33       8.1045      0.00000
     34       8.3895      0.00000
     35       8.7894      0.00000
     36       9.1995      0.00000
     37       9.7168      0.00000
     38       9.7897      0.00000
     39      10.0920      0.00000
     40      10.4838      0.00000

 k-point    71 :      -0.2000   -0.2500    0.4286
  band No.  band energies     occupation 
      1     -13.2248      1.00000
      2     -10.6345      1.00000
      3      -9.6404      1.00000
      4      -8.4342      1.00000
      5      -8.0280      1.00000
      6      -5.9829      1.00000
      7      -5.3486      1.00000
      8      -4.4857      1.00000
      9      -3.1628      1.00000
     10      -2.8217      1.00000
     11      -2.3873      1.00000
     12      -1.6597      1.00000
     13      -1.2518      1.00000
     14      -0.6621      1.00000
     15      -0.3377      1.00000
     16       0.4370      1.00000
     17       0.6671      1.00000
     18       1.0176      1.00000
     19       1.5287      1.00000
     20       2.0193      1.00000
     21       2.1691      1.00000
     22       2.7358      1.00000
     23       3.4634      1.00000
     24       3.7135      1.00000
     25       4.8231      0.00000
     26       5.0957      0.00000
     27       5.7480      0.00000
     28       6.0570      0.00000
     29       6.6051      0.00000
     30       6.8476      0.00000
     31       7.2661      0.00000
     32       7.7162      0.00000
     33       8.0015      0.00000
     34       8.5442      0.00000
     35       8.7792      0.00000
     36       9.1248      0.00000
     37       9.5514      0.00000
     38       9.7446      0.00000
     39      10.1157      0.00000
     40      10.5703      0.00000


--------------------------------------------------------------------------------------------------------


 soft charge-density along one line, spin component           1
         0         1         2         3         4         5         6         7         8         9
 total charge-density along one line
 
 soft charge-density along one line, spin component           2
         0         1         2         3         4         5         6         7         8         9
 total charge-density along one line
 
 pseudopotential strength for first ion, spin component:           1
  9.832  13.067  -0.004   0.002  -0.011   0.011  -0.002   0.030
 13.067  17.364  -0.005   0.003  -0.014   0.015  -0.003   0.039
 -0.004  -0.005  -4.030   0.003   0.003   7.895  -0.004  -0.005
  0.002   0.003   0.003  -4.017  -0.004  -0.004   7.874   0.006
 -0.011  -0.014   0.003  -0.004  -4.022  -0.005   0.006   7.881
  0.011   0.015   7.895  -0.004  -0.005 -17.585   0.003   0.009
 -0.002  -0.003  -0.004   7.874   0.006   0.003 -17.550  -0.010
  0.030   0.039  -0.005   0.006   7.881   0.009  -0.010 -17.557
 pseudopotential strength for first ion, spin component:           2
  9.832  13.067  -0.004   0.002  -0.011   0.011  -0.002   0.030
 13.067  17.364  -0.005   0.003  -0.014   0.015  -0.003   0.039
 -0.004  -0.005  -4.030   0.003   0.003   7.895  -0.004  -0.005
  0.002   0.003   0.003  -4.017  -0.004  -0.004   7.874   0.006
 -0.011  -0.014   0.003  -0.004  -4.022  -0.005   0.006   7.881
  0.011   0.015   7.895  -0.004  -0.005 -17.585   0.003   0.009
 -0.002  -0.003  -0.004   7.874   0.006   0.003 -17.550  -0.010
  0.030   0.039  -0.005   0.006   7.881   0.009  -0.010 -17.557
 total augmentation occupancy for first ion, spin component:           1
  5.992  -2.505  -0.277  -0.281  -0.467  -0.047  -0.046  -0.075
 -2.505   1.253   0.207   0.167   0.369   0.027   0.025   0.042
 -0.277   0.207   1.420  -0.221  -0.055   0.128  -0.021  -0.013
 -0.281   0.167  -0.221   1.152   0.064  -0.021   0.074   0.015
 -0.467   0.369  -0.055   0.064   1.451  -0.013   0.015   0.092
 -0.047   0.027   0.128  -0.021  -0.013   0.013  -0.002  -0.002
 -0.046   0.025  -0.021   0.074   0.015  -0.002   0.006   0.002
 -0.075   0.042  -0.013   0.015   0.092  -0.002   0.002   0.008
 total augmentation occupancy for first ion, spin component:           2
 -0.000   0.000  -0.000  -0.000   0.000   0.000   0.000  -0.000
  0.000  -0.000   0.000   0.000  -0.000  -0.000  -0.000  -0.000
 -0.000   0.000   0.000   0.000   0.000   0.000  -0.000   0.000
 -0.000   0.000   0.000   0.000  -0.000  -0.000  -0.000  -0.000
  0.000  -0.000   0.000  -0.000   0.000   0.000  -0.000   0.000
  0.000  -0.000   0.000  -0.000   0.000  -0.000  -0.000   0.000
  0.000  -0.000  -0.000  -0.000  -0.000  -0.000  -0.000  -0.000
 -0.000  -0.000   0.000  -0.000   0.000   0.000  -0.000   0.000


------------------------ aborting loop because EDIFF is reached ----------------------------------------


 


 total charge     
 
# of ion       s       p       d       tot
------------------------------------------
    1        0.872   1.537   0.000   2.409
    2        0.869   1.607   0.000   2.477
    3        0.887   1.501   0.000   2.387
    4        0.878   1.614   0.000   2.492
    5        0.858   1.662   0.000   2.520
    6        0.854   1.729   0.000   2.583
    7        0.727   0.952   0.000   1.679
    8        0.745   0.891   0.000   1.636
    9        0.805   0.813   0.000   1.618
   10        0.820   0.770   0.000   1.590
   11        0.753   0.962   0.000   1.715
   12        0.886   0.666   0.000   1.552
--------------------------------------------------
tot          9.953  14.705   0.000  24.658
 


 magnetization (x)
 
# of ion       s       p       d       tot
------------------------------------------
    1        0.000  -0.000   0.000  -0.000
    2       -0.000   0.000   0.000  -0.000
    3       -0.000   0.000   0.000   0.000
    4       -0.000   0.000   0.000   0.000
    5        0.000  -0.000   0.000  -0.000
    6        0.000  -0.000   0.000  -0.000
    7        0.000   0.000   0.000   0.000
    8        0.000   0.000   0.000   0.000
    9       -0.000  -0.000   0.000  -0.000
   10       -0.000  -0.000   0.000  -0.000
   11        0.000   0.000   0.000   0.000
   12        0.000   0.000   0.000   0.000
--------------------------------------------------
tot          0.000  -0.000   0.000   0.000
 
    CHARGE:  cpu time    0.3080: real time    0.3079
    FORLOC:  cpu time    0.0020: real time    0.0017
    FORNL :  cpu time    1.5988: real time    1.5991
    STRESS:  cpu time    2.5736: real time    2.6026
    FORCOR:  cpu time    0.0290: real time    0.0282
    FORHAR:  cpu time    0.0040: real time    0.0039
    MIXING:  cpu time    0.0010: real time    0.0013
    OFIELD:  cpu time    0.0000: real time    0.0000

  FORCE on cell =-STRESS in cart. coord.  units (eV):
  Direction    XX          YY          ZZ          XY          YZ          ZX
  --------------------------------------------------------------------------------------
  Alpha Z    41.22195    41.22195    41.22195
  Ewald    -212.11203  -434.70215  -339.00516   -73.62557    60.98456   -11.38796
  Hartree   283.76517   111.47425   242.49902   -39.80613    58.07604     8.24286
  E(xc)    -164.51388  -164.03005  -164.07398    -0.34205    -0.54899     0.28043
  Local    -671.16462  -266.90817  -500.78980   112.00323  -127.65475     7.49082
  n-local   221.82252   215.37021   216.63199     2.33543     9.14659    -5.19233
  augment   -37.88189   -37.38497   -37.24980    -0.46885    -0.53117     0.48154
  Kinetic   540.32019   536.29119   538.72762     1.32884     1.17048    -1.03653
  Fock        0.00000     0.00000     0.00000     0.00000     0.00000     0.00000
  -------------------------------------------------------------------------------------
  Total       1.45741     1.33225    -2.03816     1.42490     0.64276    -1.12117
  in kB      11.54368    10.55227   -16.14356    11.28614     5.09110    -8.88044
  external pressure =        1.98 kB  Pullay stress =        0.00 kB


 VOLUME and BASIS-vectors are now :
 -----------------------------------------------------------------------------
  energy-cutoff  :      560.00
  volume of cell :      202.28
      direct lattice vectors                 reciprocal lattice vectors
     6.215130681  0.000000000  0.000000000     0.160897663  0.015711822  0.033352358
    -0.745885246  7.638273278  0.000000000     0.000000000  0.130919642 -0.070302574
    -1.106677285  2.288076040  4.260926452     0.000000000  0.000000000  0.234690744

  length of vectors
     6.215130681  7.674605102  4.961403109     0.165067559  0.148601495  0.234690744


 FORCES acting on ions
    electron-ion (+dipol)            ewald-force                    non-local-force                 convergence-correction
 -----------------------------------------------------------------------------------------------
   -.666E+02 -.736E+02 -.145E+02   0.744E+02 0.764E+02 0.149E+02   -.703E+01 -.342E+01 -.436E+00   0.849E-04 0.221E-03 -.121E-03
   0.658E+02 -.862E+02 0.731E+02   -.729E+02 0.918E+02 -.778E+02   0.758E+01 -.573E+01 0.423E+01   0.190E-03 0.227E-03 -.105E-03
   0.159E+02 -.355E+02 0.201E+02   -.182E+02 0.366E+02 -.245E+02   0.200E+01 -.871E+00 0.354E+01   0.712E-04 0.261E-04 -.108E-03
   -.219E+02 0.711E+02 -.843E+02   0.217E+02 -.732E+02 0.891E+02   0.115E+00 0.190E+01 -.444E+01   0.623E-04 -.177E-03 0.291E-03
   0.158E+02 0.154E+02 -.148E+02   -.146E+02 -.173E+02 0.143E+02   -.123E+01 0.208E+01 0.374E+00   0.166E-03 -.981E-04 0.266E-03
   -.329E+02 0.631E+02 0.135E+02   0.334E+02 -.676E+02 -.147E+02   -.711E+00 0.374E+01 0.124E+01   0.738E-04 0.709E-04 0.178E-03
   -.214E+02 0.353E+02 0.749E+01   0.219E+02 -.360E+02 -.114E+02   -.102E+01 0.158E+01 0.369E+01   -.116E-03 -.236E-04 0.106E-03
   0.431E+02 0.391E+01 0.654E+02   -.448E+02 -.166E+01 -.667E+02   0.182E+01 -.202E+01 0.149E+01   0.118E-03 0.998E-04 0.705E-04
   0.649E+02 0.489E+02 -.756E+02   -.631E+02 -.506E+02 0.763E+02   -.201E+01 0.163E+01 -.370E+00   0.429E-04 -.180E-03 0.875E-04
   0.246E+02 0.638E+02 0.240E+02   -.235E+02 -.629E+02 -.249E+02   -.981E+00 -.130E+01 0.168E+01   -.620E-04 0.189E-03 0.851E-04
   -.372E+02 -.993E+01 -.142E+02   0.308E+02 0.130E+02 0.155E+02   0.615E+01 -.291E+01 -.136E+01   -.510E-04 -.170E-03 0.646E-04
   -.525E+02 -.879E+02 -.121E+02   0.548E+02 0.914E+02 0.100E+02   -.236E+01 -.317E+01 0.231E+01   -.525E-04 -.455E-04 -.228E-03
 -----------------------------------------------------------------------------------------------
   -.232E+01 0.851E+01 -.119E+02   0.213E-13 -.568E-13 -.195E-13   0.232E+01 -.851E+01 0.119E+02   0.528E-03 0.139E-03 0.585E-03
 
 
 POSITION                                       TOTAL-FORCE (eV/Angst)
 -----------------------------------------------------------------------------------
      1.03487      0.91273      0.36893         0.767323     -0.579166     -0.059980
     -1.09505      3.92184      3.84468         0.537887     -0.143981     -0.460030
      1.85283      1.58682      2.41856        -0.285025      0.217900     -0.871537
     -0.47986      6.23142      1.55237        -0.045326     -0.197077      0.371459
      3.24880      7.44993      0.95674        -0.006714      0.184124     -0.127074
      0.08183      7.08551      0.60058        -0.201040     -0.695512      0.065798
      0.66287      9.44473      4.11909        -0.478467      0.899553     -0.260866
      4.23356      2.33442      3.94208         0.173248      0.224783      0.172777
      4.02997      6.27976      2.34026        -0.193418     -0.087275      0.262767
      5.32933      4.42486      1.38515         0.140009     -0.410031      0.777214
      2.74707      8.63015      2.25783        -0.282837      0.204714     -0.069419
      0.91830      3.07778      0.31303        -0.125640      0.381967      0.198890
 -----------------------------------------------------------------------------------
    total drift:                               -0.000147      0.000071      0.000184


--------------------------------------------------------------------------------------------------------



  FREE ENERGIE OF THE ION-ELECTRON SYSTEM (eV)
  ---------------------------------------------------
  free  energy   TOTEN  =       -74.81600036 eV

  energy  without entropy=      -74.81565033  energy(sigma->0) =      -74.81582534
 


--------------------------------------------------------------------------------------------------------


    POTLOK:  cpu time    0.3010: real time    0.3006


--------------------------------------------------------------------------------------------------------




--------------------------------------------------------------------------------------------------------


 writing wavefunctions
     LOOP+:  cpu time  103.9452: real time  104.4064
    4ORBIT:  cpu time    0.0000: real time    0.0000
 


 total charge     
 
# of ion       s       p       d       tot
------------------------------------------
    1        0.872   1.537   0.000   2.409
    2        0.869   1.607   0.000   2.477
    3        0.887   1.501   0.000   2.387
    4        0.878   1.614   0.000   2.492
    5        0.858   1.662   0.000   2.520
    6        0.854   1.729   0.000   2.583
    7        0.727   0.952   0.000   1.679
    8        0.745   0.891   0.000   1.636
    9        0.805   0.813   0.000   1.618
   10        0.820   0.770   0.000   1.590
   11        0.753   0.962   0.000   1.715
   12        0.886   0.666   0.000   1.552
--------------------------------------------------
tot          9.953  14.705   0.000  24.658
 


 magnetization (x)
 
# of ion       s       p       d       tot
------------------------------------------
    1        0.000  -0.000   0.000  -0.000
    2       -0.000   0.000   0.000  -0.000
    3       -0.000   0.000   0.000   0.000
    4       -0.000   0.000   0.000   0.000
    5        0.000  -0.000   0.000  -0.000
    6        0.000  -0.000   0.000  -0.000
    7        0.000   0.000   0.000   0.000
    8        0.000   0.000   0.000   0.000
    9       -0.000  -0.000   0.000  -0.000
   10       -0.000  -0.000   0.000  -0.000
   11        0.000   0.000   0.000   0.000
   12        0.000   0.000   0.000   0.000
--------------------------------------------------
tot          0.000  -0.000   0.000   0.000
 

 total amount of memory used by VASP MPI-rank0    87730. kBytes
=======================================================================

   base      :      30000. kBytes
   nonl-proj :      14216. kBytes
   fftplans  :       3949. kBytes
   grid      :       4195. kBytes
   one-center:         18. kBytes
   wavefun   :      35352. kBytes
 
  
  
 General timing and accounting informations for this job:
 ========================================================
  
                  Total CPU time used (sec):      110.007
                            User time (sec):      107.312
                          System time (sec):        2.696
                         Elapsed time (sec):      110.689
  
                   Maximum memory used (kb):      124888.
                   Average memory used (kb):           0.
  
                          Minor page faults:        32349
                          Major page faults:            0
                 Voluntary context switches:         1917
