 vasp.5.4.4.18Apr17-6-g9f103f2a35 (build Sep 20 2017 14:02:52) complex          
  
 executed on             LinuxIFC date 2018.08.09  21:10:39
 running on   16 total cores
 distrk:  each k-point on   16 cores,    1 groups
 distr:  one band on NCORES_PER_BAND=   1 cores,   16 groups


--------------------------------------------------------------------------------------------------------


 INCAR:
 POTCAR:    PAW_PBE C 08Apr2002                   
 POTCAR:    PAW_PBE Si 05Jan2001                  

 ----------------------------------------------------------------------------- 
|                                                                             |
|           W    W    AA    RRRRR   N    N  II  N    N   GGGG   !!!           |
|           W    W   A  A   R    R  NN   N  II  NN   N  G    G  !!!           |
|           W    W  A    A  R    R  N N  N  II  N N  N  G       !!!           |
|           W WW W  AAAAAA  RRRRR   N  N N  II  N  N N  G  GGG   !            |
|           WW  WW  A    A  R   R   N   NN  II  N   NN  G    G                |
|           W    W  A    A  R    R  N    N  II  N    N   GGGG   !!!           |
|                                                                             |
|      For optimal performance we recommend to set                            |
|        NCORE= 4 - approx SQRT( number of cores)                             |
|      NCORE specifies how many cores store one orbital (NPAR=cpu/NCORE).     |
|      This setting can  greatly improve the performance of VASP for DFT.     |
|      The default,   NCORE=1            might be grossly inefficient         |
|      on modern multi-core architectures or massively parallel machines.     |
|      Do your own testing !!!!                                               |
|      Unfortunately you need to use the default for GW and RPA calculations. |
|      (for HF NCORE is supported but not extensively tested yet)             |
|                                                                             |
 ----------------------------------------------------------------------------- 

 POTCAR:    PAW_PBE C 08Apr2002                   
   VRHFIN =C: s2p2                                                              
   LEXCH  = PE                                                                  
   EATOM  =   147.1560 eV,   10.8157 Ry                                         
                                                                                
   TITEL  = PAW_PBE C 08Apr2002                                                 
   LULTRA =        F    use ultrasoft PP ?                                      
   IUNSCR =        1    unscreen: 0-lin 1-nonlin 2-no                           
   RPACOR =    1.200    partial core radius                                     
   POMASS =   12.011; ZVAL   =    4.000    mass and valenz                      
   RCORE  =    1.500    outmost cutoff radius                                   
   RWIGS  =    1.630; RWIGS  =    0.863    wigner-seitz radius (au A)           
   ENMAX  =  400.000; ENMIN  =  300.000 eV                                      
   ICORE  =        2    local potential                                         
   LCOR   =        T    correct aug charges                                     
   LPAW   =        T    paw PP                                                  
   EAUG   =  644.873                                                            
   DEXC   =    0.000                                                            
   RMAX   =    1.529    core radius for proj-oper                               
   RAUG   =    1.300    factor for augmentation sphere                          
   RDEP   =    1.501    radius for radial grids                                 
   RDEPT  =    1.300    core radius for aug-charge                              
                                                                                
   Atomic configuration                                                         
    4 entries                                                                   
     n  l   j            E        occ.                                          
     1  0  0.50      -273.3789   2.0000                                         
     2  0  0.50       -13.7508   2.0000                                         
     2  1  0.50        -5.2854   2.0000                                         
     3  2  1.50        -5.4423   0.0000                                         
   Description                                                                  
     l       E           TYP  RCUT    TYP  RCUT                                 
     0    -13.7508458     23  1.200                                             
     0     -8.2022199     23  1.200                                             
     1     -5.2854383     23  1.500                                             
     1     34.0145650     23  1.500                                             
     2     -5.4423304      7  1.500                                             
  local pseudopotential read in
  partial core-charges read in
  partial kinetic energy density read in
  atomic valenz-charges read in
  non local Contribution for L=           0  read in
    real space projection operators read in
  non local Contribution for L=           0  read in
    real space projection operators read in
  non local Contribution for L=           1  read in
    real space projection operators read in
  non local Contribution for L=           1  read in
    real space projection operators read in
    PAW grid and wavefunctions read in
 
   number of l-projection  operators is LMAX  =           4
   number of lm-projection operators is LMMAX =           8
 
 POTCAR:    PAW_PBE Si 05Jan2001                  
   VRHFIN =Si: s2p2                                                             
   LEXCH  = PE                                                                  
   EATOM  =   103.0669 eV,    7.5752 Ry                                         
                                                                                
   TITEL  = PAW_PBE Si 05Jan2001                                                
   LULTRA =        F    use ultrasoft PP ?                                      
   IUNSCR =        1    unscreen: 0-lin 1-nonlin 2-no                           
   RPACOR =    1.500    partial core radius                                     
   POMASS =   28.085; ZVAL   =    4.000    mass and valenz                      
   RCORE  =    1.900    outmost cutoff radius                                   
   RWIGS  =    2.480; RWIGS  =    1.312    wigner-seitz radius (au A)           
   ENMAX  =  245.345; ENMIN  =  184.009 eV                                      
   ICORE  =        2    local potential                                         
   LCOR   =        T    correct aug charges                                     
   LPAW   =        T    paw PP                                                  
   EAUG   =  322.069                                                            
   DEXC   =    0.000                                                            
   RMAX   =    1.950    core radius for proj-oper                               
   RAUG   =    1.300    factor for augmentation sphere                          
   RDEP   =    1.993    radius for radial grids                                 
   RDEPT  =    1.837    core radius for aug-charge                              
                                                                                
   Atomic configuration                                                         
    6 entries                                                                   
     n  l   j            E        occ.                                          
     1  0  0.50     -1785.8828   2.0000                                         
     2  0  0.50      -139.4969   2.0000                                         
     2  1  1.50       -95.5546   6.0000                                         
     3  0  0.50       -10.8127   2.0000                                         
     3  1  0.50        -4.0811   2.0000                                         
     3  2  1.50        -4.0817   0.0000                                         
   Description                                                                  
     l       E           TYP  RCUT    TYP  RCUT                                 
     0    -10.8127223     23  1.900                                             
     0     -7.6451159     23  1.900                                             
     1     -4.0811372     23  1.900                                             
     1      2.4879257     23  1.900                                             
     2     -4.0817478      7  1.900                                             
  local pseudopotential read in
  partial core-charges read in
  partial kinetic energy density read in
  atomic valenz-charges read in
  non local Contribution for L=           0  read in
    real space projection operators read in
  non local Contribution for L=           0  read in
    real space projection operators read in
  non local Contribution for L=           1  read in
    real space projection operators read in
  non local Contribution for L=           1  read in
    real space projection operators read in
    PAW grid and wavefunctions read in
 
   number of l-projection  operators is LMAX  =           4
   number of lm-projection operators is LMMAX =           8
 
  PAW_PBE C 08Apr2002                   :
 energy of atom  1       EATOM= -147.1560
 kinetic energy error for atom=    0.0065 (will be added to EATOM!!)
  PAW_PBE Si 05Jan2001                  :
 energy of atom  2       EATOM= -103.0669
 kinetic energy error for atom=    0.0004 (will be added to EATOM!!)
 
 
 POSCAR:  C Si                                   
  positions in direct lattice
  No initial velocities read in
 exchange correlation table for  LEXCH =        8
   RHO(1)=    0.500       N(1)  =     2000
   RHO(2)=  100.500       N(2)  =     4000
 


--------------------------------------------------------------------------------------------------------


 ion  position               nearest neighbor table
   1  0.917  0.613  0.935-   3 1.50   9 2.01   9 2.04   8 2.11
   2  0.458  0.904  0.760-   5 1.50  10 1.88   8 1.89  10 1.93
   3  0.990  0.351  0.746-   5 1.40   1 1.50  10 1.84   9 2.59
   4  0.366  0.842  0.463-   5 1.49   6 1.83   7 1.84   6 1.94
   5  0.262  0.037  0.662-   3 1.40   4 1.49   2 1.50
   6  0.285  0.327  0.347-   4 1.83   4 1.94   9 2.47   7 2.73   7 2.76   8 2.91   7 3.14
   7  0.743  0.738  0.388-   4 1.84  10 2.63   6 2.73   6 2.76  10 2.82   6 3.14
   8  0.211  0.124  0.004-   2 1.89   1 2.11   9 2.62   9 2.86   6 2.91   9 3.10
   9  0.645  0.268  0.049-   1 2.01   1 2.04   6 2.47   3 2.59   8 2.62  10 2.82   8 2.86   8 3.10

  10  0.701  0.276  0.685-   3 1.84   2 1.88   2 1.93   7 2.63   9 2.82   7 2.82
 
  LATTYP: Found a triclinic cell.
 ALAT       =     2.9860286307
 B/A-ratio  =     3.7671242527
 C/A-ratio  =     1.8111055175
 COS(alpha) =     0.0155200862
 COS(beta)  =     0.2818691131
 COS(gamma) =     0.7303265869
  
  Lattice vectors:
  
 A1 = (   0.8096579772,   2.8741643905,   0.0000000000)
 A2 = (   4.3754845408,   7.3024143431,  -7.3528260584)
 A3 = (  -4.5810242188,   2.8741643905,   0.0000000000)


Analysis of symmetry for initial positions (statically):
=====================================================================
 Subroutine PRICEL returns:
 Original cell was already a primitive cell.
 

 Routine SETGRP: Setting up the symmetry group for a 
 triclinic supercell.


 Subroutine GETGRP returns: Found  1 space group operations
 (whereof  1 operations were pure point group operations)
 out of a pool of  2 trial point group operations.


The static configuration has the point symmetry C_1 .


Analysis of symmetry for dynamics (positions and initial velocities):
=====================================================================
 Subroutine PRICEL returns:
 Original cell was already a primitive cell.
 

 Routine SETGRP: Setting up the symmetry group for a 
 triclinic supercell.


 Subroutine GETGRP returns: Found  1 space group operations
 (whereof  1 operations were pure point group operations)
 out of a pool of  2 trial point group operations.


The dynamic configuration has the point symmetry C_1 .


Analysis of structural, dynamic, and magnetic symmetry:
=====================================================================
 Subroutine PRICEL returns:
 Original cell was already a primitive cell.
 

 Routine SETGRP: Setting up the symmetry group for a 
 triclinic supercell.


 Subroutine GETGRP returns: Found  1 space group operations
 (whereof  1 operations were pure point group operations)
 out of a pool of  2 trial point group operations.


The magnetic configuration has the point symmetry C_1 .


 Subroutine INISYM returns: Found  1 space group operations
 (whereof  1 operations are pure point group operations),
 and found     1 'primitive' translations

 
 
 KPOINTS: Automatic mesh                          

Automatic generation of k-mesh.
 generate k-points for:    6   11    4
Space group operators:
 irot       det(A)        alpha          n_x          n_y          n_z        tau_x        tau_y        tau_z
    1     1.000000     0.000001     1.000000     0.000000     0.000000     0.000000     0.000000     0.000000
 
 Subroutine IBZKPT returns following result:
 ===========================================
 
 Found    134 irreducible k-points:
 
 Following reciprocal coordinates:
            Coordinates               Weight
  0.000000  0.000000  0.000000      1.000000
  0.166667 -0.000000  0.000000      2.000000
  0.333333  0.000000  0.000000      2.000000
  0.500000  0.000000  0.000000      1.000000
  0.000000  0.090909  0.000000      2.000000
  0.166667  0.090909  0.000000      2.000000
  0.333333  0.090909  0.000000      2.000000
  0.500000  0.090909 -0.000000      2.000000
 -0.333333  0.090909  0.000000      2.000000
 -0.166667  0.090909  0.000000      2.000000
  0.000000  0.181818  0.000000      2.000000
  0.166667  0.181818  0.000000      2.000000
  0.333333  0.181818  0.000000      2.000000
  0.500000  0.181818  0.000000      2.000000
 -0.333333  0.181818  0.000000      2.000000
 -0.166667  0.181818  0.000000      2.000000
  0.000000  0.272727 -0.000000      2.000000
  0.166667  0.272727 -0.000000      2.000000
  0.333333  0.272727  0.000000      2.000000
  0.500000  0.272727 -0.000000      2.000000
 -0.333333  0.272727  0.000000      2.000000
 -0.166667  0.272727 -0.000000      2.000000
  0.000000  0.363636  0.000000      2.000000
  0.166667  0.363636  0.000000      2.000000
  0.333333  0.363636  0.000000      2.000000
  0.500000  0.363636  0.000000      2.000000
 -0.333333  0.363636  0.000000      2.000000
 -0.166667  0.363636  0.000000      2.000000
  0.000000  0.454545 -0.000000      2.000000
  0.166667  0.454545  0.000000      2.000000
  0.333333  0.454545  0.000000      2.000000
  0.500000  0.454545  0.000000      2.000000
 -0.333333  0.454545 -0.000000      2.000000
 -0.166667  0.454545 -0.000000      2.000000
  0.000000  0.000000  0.250000      2.000000
  0.166667 -0.000000  0.250000      2.000000
  0.333333  0.000000  0.250000      2.000000
  0.500000  0.000000  0.250000      2.000000
 -0.333333 -0.000000  0.250000      2.000000
 -0.166667  0.000000  0.250000      2.000000
  0.000000  0.090909  0.250000      2.000000
  0.166667  0.090909  0.250000      2.000000
  0.333333  0.090909  0.250000      2.000000
  0.500000  0.090909  0.250000      2.000000
 -0.333333  0.090909  0.250000      2.000000
 -0.166667  0.090909  0.250000      2.000000
  0.000000  0.181818  0.250000      2.000000
  0.166667  0.181818  0.250000      2.000000
  0.333333  0.181818  0.250000      2.000000
  0.500000  0.181818  0.250000      2.000000
 -0.333333  0.181818  0.250000      2.000000
 -0.166667  0.181818  0.250000      2.000000
  0.000000  0.272727  0.250000      2.000000
  0.166667  0.272727  0.250000      2.000000
  0.333333  0.272727  0.250000      2.000000
  0.500000  0.272727  0.250000      2.000000
 -0.333333  0.272727  0.250000      2.000000
 -0.166667  0.272727  0.250000      2.000000
  0.000000  0.363636  0.250000      2.000000
  0.166667  0.363636  0.250000      2.000000
  0.333333  0.363636  0.250000      2.000000
  0.500000  0.363636  0.250000      2.000000
 -0.333333  0.363636  0.250000      2.000000
 -0.166667  0.363636  0.250000      2.000000
  0.000000  0.454545  0.250000      2.000000
  0.166667  0.454545  0.250000      2.000000
  0.333333  0.454545  0.250000      2.000000
  0.500000  0.454545  0.250000      2.000000
 -0.333333  0.454545  0.250000      2.000000
 -0.166667  0.454545  0.250000      2.000000
  0.000000 -0.454545  0.250000      2.000000
  0.166667 -0.454545  0.250000      2.000000
  0.333333 -0.454545  0.250000      2.000000
  0.500000 -0.454545  0.250000      2.000000
 -0.333333 -0.454545  0.250000      2.000000
 -0.166667 -0.454545  0.250000      2.000000
  0.000000 -0.363636  0.250000      2.000000
  0.166667 -0.363636  0.250000      2.000000
  0.333333 -0.363636  0.250000      2.000000
  0.500000 -0.363636  0.250000      2.000000
 -0.333333 -0.363636  0.250000      2.000000
 -0.166667 -0.363636  0.250000      2.000000
  0.000000 -0.272727  0.250000      2.000000
  0.166667 -0.272727  0.250000      2.000000
  0.333333 -0.272727  0.250000      2.000000
  0.500000 -0.272727  0.250000      2.000000
 -0.333333 -0.272727  0.250000      2.000000
 -0.166667 -0.272727  0.250000      2.000000
  0.000000 -0.181818  0.250000      2.000000
  0.166667 -0.181818  0.250000      2.000000
  0.333333 -0.181818  0.250000      2.000000
  0.500000 -0.181818  0.250000      2.000000
 -0.333333 -0.181818  0.250000      2.000000
 -0.166667 -0.181818  0.250000      2.000000
  0.000000 -0.090909  0.250000      2.000000
  0.166667 -0.090909  0.250000      2.000000
  0.333333 -0.090909  0.250000      2.000000
  0.500000 -0.090909  0.250000      2.000000
 -0.333333 -0.090909  0.250000      2.000000
 -0.166667 -0.090909  0.250000      2.000000
  0.000000  0.000000  0.500000      1.000000
  0.166667 -0.000000  0.500000      2.000000
  0.333333  0.000000  0.500000      2.000000
  0.500000  0.000000  0.500000      1.000000
  0.000000  0.090909  0.500000      2.000000
  0.166667  0.090909  0.500000      2.000000
  0.333333  0.090909  0.500000      2.000000
  0.500000  0.090909  0.500000      2.000000
 -0.333333  0.090909  0.500000      2.000000
 -0.166667  0.090909  0.500000      2.000000
  0.000000  0.181818  0.500000      2.000000
  0.166667  0.181818  0.500000      2.000000
  0.333333  0.181818  0.500000      2.000000
  0.500000  0.181818  0.500000      2.000000
 -0.333333  0.181818  0.500000      2.000000
 -0.166667  0.181818  0.500000      2.000000
  0.000000  0.272727  0.500000      2.000000
  0.166667  0.272727  0.500000      2.000000
  0.333333  0.272727  0.500000      2.000000
  0.500000  0.272727  0.500000      2.000000
 -0.333333  0.272727  0.500000      2.000000
 -0.166667  0.272727  0.500000      2.000000
  0.000000  0.363636  0.500000      2.000000
  0.166667  0.363636  0.500000      2.000000
  0.333333  0.363636  0.500000      2.000000
  0.500000  0.363636  0.500000      2.000000
 -0.333333  0.363636  0.500000      2.000000
 -0.166667  0.363636  0.500000      2.000000
  0.000000  0.454545  0.500000      2.000000
  0.166667  0.454545  0.500000      2.000000
  0.333333  0.454545  0.500000      2.000000
  0.500000  0.454545  0.500000      2.000000
 -0.333333  0.454545  0.500000      2.000000
 -0.166667  0.454545  0.500000      2.000000
 
 Following cartesian coordinates:
            Coordinates               Weight
  0.000000  0.000000  0.000000      1.000000
  0.030918 -0.008710 -0.012919      2.000000
  0.061835 -0.017419 -0.025837      2.000000
  0.092753 -0.026129 -0.038756      1.000000
  0.000000  0.031630  0.006685      2.000000
  0.030918  0.022920 -0.006233      2.000000
  0.061835  0.014211 -0.019152      2.000000
  0.092753  0.005501 -0.032071      2.000000
 -0.061835  0.049049  0.032522      2.000000
 -0.030918  0.040339  0.019604      2.000000
  0.000000  0.063259  0.013370      2.000000
  0.030918  0.054550  0.000452      2.000000
  0.061835  0.045840 -0.012467      2.000000
  0.092753  0.037131 -0.025385      2.000000
 -0.061835  0.080679  0.039208      2.000000
 -0.030918  0.071969  0.026289      2.000000
  0.000000  0.094889  0.020056      2.000000
  0.030918  0.086180  0.007137      2.000000
  0.061835  0.077470 -0.005781      2.000000
  0.092753  0.068761 -0.018700      2.000000
 -0.061835  0.112308  0.045893      2.000000
 -0.030918  0.103599  0.032974      2.000000
  0.000000  0.126519  0.026741      2.000000
  0.030918  0.117809  0.013822      2.000000
  0.061835  0.109100  0.000904      2.000000
  0.092753  0.100390 -0.012015      2.000000
 -0.061835  0.143938  0.052578      2.000000
 -0.030918  0.135229  0.039659      2.000000
  0.000000  0.158149  0.033426      2.000000
  0.030918  0.149439  0.020508      2.000000
  0.061835  0.140730  0.007589      2.000000
  0.092753  0.132020 -0.005330      2.000000
 -0.061835  0.175568  0.059263      2.000000
 -0.030918  0.166858  0.046345      2.000000
  0.000000  0.000000  0.034001      2.000000
  0.030918 -0.008710  0.021082      2.000000
  0.061835 -0.017419  0.008163      2.000000
  0.092753 -0.026129 -0.004755      2.000000
 -0.061835  0.017419  0.059838      2.000000
 -0.030918  0.008710  0.046919      2.000000
  0.000000  0.031630  0.040686      2.000000
  0.030918  0.022920  0.027767      2.000000
  0.061835  0.014211  0.014849      2.000000
  0.092753  0.005501  0.001930      2.000000
 -0.061835  0.049049  0.066523      2.000000
 -0.030918  0.040339  0.053604      2.000000
  0.000000  0.063259  0.047371      2.000000
  0.030918  0.054550  0.034452      2.000000
  0.061835  0.045840  0.021534      2.000000
  0.092753  0.037131  0.008615      2.000000
 -0.061835  0.080679  0.073208      2.000000
 -0.030918  0.071969  0.060290      2.000000
  0.000000  0.094889  0.054056      2.000000
  0.030918  0.086180  0.041138      2.000000
  0.061835  0.077470  0.028219      2.000000
  0.092753  0.068761  0.015300      2.000000
 -0.061835  0.112308  0.079893      2.000000
 -0.030918  0.103599  0.066975      2.000000
  0.000000  0.126519  0.060741      2.000000
  0.030918  0.117809  0.047823      2.000000
  0.061835  0.109100  0.034904      2.000000
  0.092753  0.100390  0.021986      2.000000
 -0.061835  0.143938  0.086579      2.000000
 -0.030918  0.135229  0.073660      2.000000
  0.000000  0.158149  0.067427      2.000000
  0.030918  0.149439  0.054508      2.000000
  0.061835  0.140730  0.041590      2.000000
  0.092753  0.132020  0.028671      2.000000
 -0.061835  0.175568  0.093264      2.000000
 -0.030918  0.166858  0.080345      2.000000
  0.000000 -0.158149  0.000574      2.000000
  0.030918 -0.166858 -0.012344      2.000000
  0.061835 -0.175568 -0.025263      2.000000
  0.092753 -0.184277 -0.038181      2.000000
 -0.061835 -0.140730  0.026412      2.000000
 -0.030918 -0.149439  0.013493      2.000000
  0.000000 -0.126519  0.007260      2.000000
  0.030918 -0.135229 -0.005659      2.000000
  0.061835 -0.143938 -0.018578      2.000000
  0.092753 -0.152648 -0.031496      2.000000
 -0.061835 -0.109100  0.033097      2.000000
 -0.030918 -0.117809  0.020178      2.000000
  0.000000 -0.094889  0.013945      2.000000
  0.030918 -0.103599  0.001026      2.000000
  0.061835 -0.112308 -0.011892      2.000000
  0.092753 -0.121018 -0.024811      2.000000
 -0.061835 -0.077470  0.039782      2.000000
 -0.030918 -0.086180  0.026863      2.000000
  0.000000 -0.063259  0.020630      2.000000
  0.030918 -0.071969  0.007711      2.000000
  0.061835 -0.080679 -0.005207      2.000000
  0.092753 -0.089388 -0.018126      2.000000
 -0.061835 -0.045840  0.046467      2.000000
 -0.030918 -0.054550  0.033549      2.000000
  0.000000 -0.031630  0.027315      2.000000
  0.030918 -0.040339  0.014397      2.000000
  0.061835 -0.049049  0.001478      2.000000
  0.092753 -0.057758 -0.011440      2.000000
 -0.061835 -0.014211  0.053152      2.000000
 -0.030918 -0.022920  0.040234      2.000000
  0.000000  0.000000  0.068001      1.000000
  0.030918 -0.008710  0.055082      2.000000
  0.061835 -0.017419  0.042164      2.000000
  0.092753 -0.026129  0.029245      1.000000
  0.000000  0.031630  0.074686      2.000000
  0.030918  0.022920  0.061768      2.000000
  0.061835  0.014211  0.048849      2.000000
  0.092753  0.005501  0.035931      2.000000
 -0.061835  0.049049  0.100523      2.000000
 -0.030918  0.040339  0.087605      2.000000
  0.000000  0.063259  0.081372      2.000000
  0.030918  0.054550  0.068453      2.000000
  0.061835  0.045840  0.055534      2.000000
  0.092753  0.037131  0.042616      2.000000
 -0.061835  0.080679  0.107209      2.000000
 -0.030918  0.071969  0.094290      2.000000
  0.000000  0.094889  0.088057      2.000000
  0.030918  0.086180  0.075138      2.000000
  0.061835  0.077470  0.062220      2.000000
  0.092753  0.068761  0.049301      2.000000
 -0.061835  0.112308  0.113894      2.000000
 -0.030918  0.103599  0.100975      2.000000
  0.000000  0.126519  0.094742      2.000000
  0.030918  0.117809  0.081823      2.000000
  0.061835  0.109100  0.068905      2.000000
  0.092753  0.100390  0.055986      2.000000
 -0.061835  0.143938  0.120579      2.000000
 -0.030918  0.135229  0.107661      2.000000
  0.000000  0.158149  0.101427      2.000000
  0.030918  0.149439  0.088509      2.000000
  0.061835  0.140730  0.075590      2.000000
  0.092753  0.132020  0.062671      2.000000
 -0.061835  0.175568  0.127264      2.000000
 -0.030918  0.166858  0.114346      2.000000
 


--------------------------------------------------------------------------------------------------------




 Dimension of arrays:
   k-points           NKPTS =    134   k-points in BZ     NKDIM =    134   number of bands    NBANDS=     32
   number of dos      NEDOS =    301   number of ions     NIONS =     10
   non local maximal  LDIM  =      4   non local SUM 2l+1 LMDIM =      8
   total plane-waves  NPLWV =  64512
   max r-space proj   IRMAX =      1   max aug-charges    IRDMAX=  50908
   dimension x,y,z NGX =    42 NGY =   24 NGZ =   64
   dimension x,y,z NGXF=    60 NGYF=   32 NGZF=   90
   support grid    NGXF=   120 NGYF=   64 NGZF=  180
   ions per type =               5   5
   NGX,Y,Z   is equivalent  to a cutoff of  12.95, 13.36, 13.36 a.u.
   NGXF,Y,Z  is equivalent  to a cutoff of  18.50, 17.82, 18.79 a.u.

 SYSTEM =  TEST                                    
 POSCAR =   C Si                                   

 Startparameter for this run:
   NWRITE =      2    write-flag & timer
   PREC   = high      normal or accurate (medium, high low for compatibility)
   ISTART =      0    job   : 0-new  1-cont  2-samecut
   ICHARG =      2    charge: 1-file 2-atom 10-const
   ISPIN  =      2    spin polarized calculation?
   LNONCOLLINEAR =      F non collinear calculations
   LSORBIT =      F    spin-orbit coupling
   INIWAV =      1    electr: 0-lowe 1-rand  2-diag
   LASPH  =      T    aspherical Exc in radial PAW
   METAGGA=      F    non-selfconsistent MetaGGA calc.

 Electronic Relaxation 1
   ENCUT  =  560.0 eV  41.16 Ry    6.42 a.u.  10.40  5.76 15.37*2*pi/ulx,y,z
   ENINI  =  560.0     initial cutoff
   ENAUG  =  644.9 eV  augmentation charge cutoff
   NELM   =    100;   NELMIN=  8; NELMDL= -5     # of ELM steps 
   EDIFF  = 0.1E-07   stopping-criterion for ELM
   LREAL  =      F    real-space projection
   NLSPLINE    = F    spline interpolate recip. space projectors
   LCOMPAT=      F    compatible to vasp.4.4
   GGA_COMPAT  = T    GGA compatible to vasp.4.4-vasp.4.6
   LMAXPAW     = -100 max onsite density
   LMAXMIX     =    4 max onsite mixed and CHGCAR
   VOSKOWN=      0    Vosko Wilk Nusair interpolation
   ROPT   =    0.00000   0.00000
 Ionic relaxation
   EDIFFG = -.1E-04   stopping-criterion for IOM
   NSW    =      0    number of steps for IOM
   NBLOCK =      1;   KBLOCK =      1    inner block; outer block 
   IBRION =     -1    ionic relax: 0-MD 1-quasi-New 2-CG
   NFREE  =      0    steps in history (QN), initial steepest desc. (CG)
   ISIF   =      2    stress and relaxation
   IWAVPR =     10    prediction:  0-non 1-charg 2-wave 3-comb
   ISYM   =      2    0-nonsym 1-usesym 2-fastsym
   LCORR  =      T    Harris-Foulkes like correction to forces

   POTIM  = 0.5000    time-step for ionic-motion
   TEIN   =    0.0    initial temperature
   TEBEG  =    0.0;   TEEND  =   0.0 temperature during run
   SMASS  =  -3.00    Nose mass-parameter (am)
   estimated Nose-frequenzy (Omega)   =  0.10E-29 period in steps =****** mass=  -0.664E-27a.u.
   SCALEE = 1.0000    scale energy and forces
   NPACO  =    256;   APACO  = 16.0  distance and # of slots for P.C.
   PSTRESS=    0.0 pullay stress

  Mass of Ions in am
   POMASS =  12.01 28.09
  Ionic Valenz
   ZVAL   =   4.00  4.00
  Atomic Wigner-Seitz radii
   RWIGS  =  -1.00 -1.00
  virtual crystal weights 
   VCA    =   1.00  1.00
   NELECT =      40.0000    total number of electrons
   NUPDOWN=      -1.0000    fix difference up-down

 DOS related values:
   EMIN   =  10.00;   EMAX   =-10.00  energy-range for DOS
   EFERMI =   0.00
   ISMEAR =     0;   SIGMA  =   0.02  broadening in eV -4-tet -1-fermi 0-gaus

 Electronic relaxation 2 (details)
   IALGO  =     38    algorithm
   LDIAG  =      T    sub-space diagonalisation (order eigenvalues)
   LSUBROT=      F    optimize rotation matrix (better conditioning)
   TURBO    =      0    0=normal 1=particle mesh
   IRESTART =      0    0=no restart 2=restart with 2 vectors
   NREBOOT  =      0    no. of reboots
   NMIN     =      0    reboot dimension
   EREF     =   0.00    reference energy to select bands
   IMIX   =      4    mixing-type and parameters
     AMIX     =   0.40;   BMIX     =  1.00
     AMIX_MAG =   1.60;   BMIX_MAG =  1.00
     AMIN     =   0.10
     WC   =   100.;   INIMIX=   1;  MIXPRE=   1;  MAXMIX= -45

 Intra band minimization:
   WEIMIN = 0.0000     energy-eigenvalue tresh-hold
   EBREAK =  0.78E-10  absolut break condition
   DEPER  =   0.30     relativ break condition  

   TIME   =   0.40     timestep for ELM

  volume/ion in A,a.u.               =      11.39        76.88
  Fermi-wavevector in a.u.,A,eV,Ry     =   1.154937  2.182514 18.148531  1.333879
  Thomas-Fermi vector in A             =   2.291570
 
 Write flags
   LWAVE        =      T    write WAVECAR
   LDOWNSAMPLE  =      F    k-point downsampling of WAVECAR
   LCHARG       =      T    write CHGCAR
   LVTOT        =      F    write LOCPOT, total local potential
   LVHAR        =      F    write LOCPOT, Hartree potential only
   LELF         =      F    write electronic localiz. function (ELF)
   LORBIT       =     11    0 simple, 1 ext, 2 COOP (PROOUT), +10 PAW based schemes


 Dipole corrections
   LMONO  =      F    monopole corrections only (constant potential shift)
   LDIPOL =      F    correct potential (dipole corrections)
   IDIPOL =      0    1-x, 2-y, 3-z, 4-all directions 
   EPSILON=  1.0000000 bulk dielectric constant

 Exchange correlation treatment:
   GGA     =    --    GGA type
   LEXCH   =     8    internal setting for exchange type
   VOSKOWN=      0    Vosko Wilk Nusair interpolation
   LHFCALC =     F    Hartree Fock is set to
   LHFONE  =     F    Hartree Fock one center treatment
   AEXX    =    0.0000 exact exchange contribution

 Linear response parameters
   LEPSILON=     F    determine dielectric tensor
   LRPA    =     F    only Hartree local field effects (RPA)
   LNABLA  =     F    use nabla operator in PAW spheres
   LVEL    =     F    velocity operator in full k-point grid
   LINTERFAST=   F  fast interpolation
   KINTER  =     0    interpolate to denser k-point grid
   CSHIFT  =0.1000    complex shift for real part using Kramers Kronig
   OMEGAMAX=  -1.0    maximum frequency
   DEG_THRESHOLD= 0.2000000E-02 threshold for treating states as degnerate
   RTIME   =   -0.100 relaxation time in fs
  (WPLASMAI=    0.000 imaginary part of plasma frequency in eV, 0.658/RTIME)
   DFIELD  = 0.0000000 0.0000000 0.0000000 field for delta impulse in time
 
 Orbital magnetization related:
   ORBITALMAG=     F  switch on orbital magnetization
   LCHIMAG   =     F  perturbation theory with respect to B field
   DQ        =  0.001000  dq finite difference perturbation B field
   LLRAUG    =     F  two centre corrections for induced B field



--------------------------------------------------------------------------------------------------------


 Static calculation
 charge density and potential will be updated during run
 spin polarized calculation
 Variant of blocked Davidson
 Davidson routine will perform the subspace rotation
 perform sub-space diagonalisation
    after iterative eigenvector-optimisation
 modified Broyden-mixing scheme, WC =      100.0
 initial mixing is a Kerker type mixing with AMIX =  0.4000 and BMIX =      1.0000
 Hartree-type preconditioning will be used
 using additional bands           12
 reciprocal scheme for non local part
 use partial core corrections
 calculate Harris-corrections to forces 
   (improved forces if not selfconsistent)
 use gradient corrections 
 use of overlap-Matrix (Vanderbilt PP)
 Gauss-broadening in eV      SIGMA  =   0.02


--------------------------------------------------------------------------------------------------------


  energy-cutoff  :      560.00
  volume of cell :      113.92
      direct lattice vectors                 reciprocal lattice vectors
     5.390682196  0.000000000  0.000000000     0.185505278 -0.052257216 -0.077511471
     0.809657977  2.874164390  0.000000000     0.000000000  0.347927211  0.073537528
     2.634513610 -1.554085562  7.352826058     0.000000000  0.000000000  0.136002129

  length of vectors
     5.390682196  2.986028631  7.963660901     0.207728315  0.355613712  0.136002129


 
 k-points in units of 2pi/SCALE and weight: Automatic mesh                          
   0.00000000  0.00000000  0.00000000       0.004
   0.03091755 -0.00870954 -0.01291858       0.008
   0.06183509 -0.01741907 -0.02583716       0.008
   0.09275264 -0.02612861 -0.03875574       0.004
   0.00000000  0.03162975  0.00668523       0.008
   0.03091755  0.02292021 -0.00623335       0.008
   0.06183509  0.01421067 -0.01915193       0.008
   0.09275264  0.00550114 -0.03207051       0.008
  -0.06183509  0.04904882  0.03252239       0.008
  -0.03091755  0.04033928  0.01960381       0.008
   0.00000000  0.06325949  0.01337046       0.008
   0.03091755  0.05454996  0.00045188       0.008
   0.06183509  0.04584042 -0.01246670       0.008
   0.09275264  0.03713089 -0.02538528       0.008
  -0.06183509  0.08067856  0.03920762       0.008
  -0.03091755  0.07196903  0.02628904       0.008
   0.00000000  0.09488924  0.02005569       0.008
   0.03091755  0.08617970  0.00713711       0.008
   0.06183509  0.07747017 -0.00578147       0.008
   0.09275264  0.06876063 -0.01870005       0.008
  -0.06183509  0.11230831  0.04589285       0.008
  -0.03091755  0.10359878  0.03297427       0.008
   0.00000000  0.12651899  0.02674092       0.008
   0.03091755  0.11780945  0.01382234       0.008
   0.06183509  0.10909991  0.00090376       0.008
   0.09275264  0.10039038 -0.01201482       0.008
  -0.06183509  0.14393806  0.05257808       0.008
  -0.03091755  0.13522852  0.03965950       0.008
   0.00000000  0.15814873  0.03342615       0.008
   0.03091755  0.14943920  0.02050757       0.008
   0.06183509  0.14072966  0.00758899       0.008
   0.09275264  0.13202012 -0.00532959       0.008
  -0.06183509  0.17556780  0.05926331       0.008
  -0.03091755  0.16685827  0.04634473       0.008
   0.00000000  0.00000000  0.03400053       0.008
   0.03091755 -0.00870954  0.02108195       0.008
   0.06183509 -0.01741907  0.00816338       0.008
   0.09275264 -0.02612861 -0.00475520       0.008
  -0.06183509  0.01741907  0.05983769       0.008
  -0.03091755  0.00870954  0.04691911       0.008
   0.00000000  0.03162975  0.04068576       0.008
   0.03091755  0.02292021  0.02776718       0.008
   0.06183509  0.01421067  0.01484861       0.008
   0.09275264  0.00550114  0.00193003       0.008
  -0.06183509  0.04904882  0.06652292       0.008
  -0.03091755  0.04033928  0.05360434       0.008
   0.00000000  0.06325949  0.04737099       0.008
   0.03091755  0.05454996  0.03445241       0.008
   0.06183509  0.04584042  0.02153384       0.008
   0.09275264  0.03713089  0.00861526       0.008
  -0.06183509  0.08067856  0.07320815       0.008
  -0.03091755  0.07196903  0.06028957       0.008
   0.00000000  0.09488924  0.05405622       0.008
   0.03091755  0.08617970  0.04113764       0.008
   0.06183509  0.07747017  0.02821906       0.008
   0.09275264  0.06876063  0.01530049       0.008
  -0.06183509  0.11230831  0.07989338       0.008
  -0.03091755  0.10359878  0.06697480       0.008
   0.00000000  0.12651899  0.06074145       0.008
   0.03091755  0.11780945  0.04782287       0.008
   0.06183509  0.10909991  0.03490429       0.008
   0.09275264  0.10039038  0.02198572       0.008
  -0.06183509  0.14393806  0.08657861       0.008
  -0.03091755  0.13522852  0.07366003       0.008
   0.00000000  0.15814873  0.06742668       0.008
   0.03091755  0.14943920  0.05450810       0.008
   0.06183509  0.14072966  0.04158952       0.008
   0.09275264  0.13202012  0.02867095       0.008
  -0.06183509  0.17556780  0.09326384       0.008
  -0.03091755  0.16685827  0.08034526       0.008
   0.00000000 -0.15814873  0.00057438       0.008
   0.03091755 -0.16685827 -0.01234420       0.008
   0.06183509 -0.17556780 -0.02526277       0.008
   0.09275264 -0.18427734 -0.03818135       0.008
  -0.06183509 -0.14072966  0.02641154       0.008
  -0.03091755 -0.14943920  0.01349296       0.008
   0.00000000 -0.12651899  0.00725961       0.008
   0.03091755 -0.13522852 -0.00565897       0.008
   0.06183509 -0.14393806 -0.01857754       0.008
   0.09275264 -0.15264759 -0.03149612       0.008
  -0.06183509 -0.10909991  0.03309677       0.008
  -0.03091755 -0.11780945  0.02017819       0.008
   0.00000000 -0.09488924  0.01394484       0.008
   0.03091755 -0.10359878  0.00102626       0.008
   0.06183509 -0.11230831 -0.01189231       0.008
   0.09275264 -0.12101785 -0.02481089       0.008
  -0.06183509 -0.07747017  0.03978200       0.008
  -0.03091755 -0.08617970  0.02686342       0.008
   0.00000000 -0.06325949  0.02063007       0.008
   0.03091755 -0.07196903  0.00771149       0.008
   0.06183509 -0.08067856 -0.00520708       0.008
   0.09275264 -0.08938810 -0.01812566       0.008
  -0.06183509 -0.04584042  0.04646723       0.008
  -0.03091755 -0.05454996  0.03354865       0.008
   0.00000000 -0.03162975  0.02731530       0.008
   0.03091755 -0.04033928  0.01439672       0.008
   0.06183509 -0.04904882  0.00147815       0.008
   0.09275264 -0.05775835 -0.01144043       0.008
  -0.06183509 -0.01421067  0.05315246       0.008
  -0.03091755 -0.02292021  0.04023388       0.008
   0.00000000  0.00000000  0.06800106       0.004
   0.03091755 -0.00870954  0.05508249       0.008
   0.06183509 -0.01741907  0.04216391       0.008
   0.09275264 -0.02612861  0.02924533       0.004
   0.00000000  0.03162975  0.07468629       0.008
   0.03091755  0.02292021  0.06176772       0.008
   0.06183509  0.01421067  0.04884914       0.008
   0.09275264  0.00550114  0.03593056       0.008
  -0.06183509  0.04904882  0.10052345       0.008
  -0.03091755  0.04033928  0.08760487       0.008
   0.00000000  0.06325949  0.08137152       0.008
   0.03091755  0.05454996  0.06845295       0.008
   0.06183509  0.04584042  0.05553437       0.008
   0.09275264  0.03713089  0.04261579       0.008
  -0.06183509  0.08067856  0.10720868       0.008
  -0.03091755  0.07196903  0.09429010       0.008
   0.00000000  0.09488924  0.08805675       0.008
   0.03091755  0.08617970  0.07513818       0.008
   0.06183509  0.07747017  0.06221960       0.008
   0.09275264  0.06876063  0.04930102       0.008
  -0.06183509  0.11230831  0.11389391       0.008
  -0.03091755  0.10359878  0.10097533       0.008
   0.00000000  0.12651899  0.09474198       0.008
   0.03091755  0.11780945  0.08182341       0.008
   0.06183509  0.10909991  0.06890483       0.008
   0.09275264  0.10039038  0.05598625       0.008
  -0.06183509  0.14393806  0.12057914       0.008
  -0.03091755  0.13522852  0.10766056       0.008
   0.00000000  0.15814873  0.10142721       0.008
   0.03091755  0.14943920  0.08850864       0.008
   0.06183509  0.14072966  0.07559006       0.008
   0.09275264  0.13202012  0.06267148       0.008
  -0.06183509  0.17556780  0.12726437       0.008
  -0.03091755  0.16685827  0.11434579       0.008
 
 k-points in reciprocal lattice and weights: Automatic mesh                          
   0.00000000  0.00000000  0.00000000       0.004
   0.16666667 -0.00000000  0.00000000       0.008
   0.33333333  0.00000000  0.00000000       0.008
   0.50000000  0.00000000  0.00000000       0.004
   0.00000000  0.09090909  0.00000000       0.008
   0.16666667  0.09090909  0.00000000       0.008
   0.33333333  0.09090909  0.00000000       0.008
   0.50000000  0.09090909 -0.00000000       0.008
  -0.33333333  0.09090909  0.00000000       0.008
  -0.16666667  0.09090909  0.00000000       0.008
   0.00000000  0.18181818  0.00000000       0.008
   0.16666667  0.18181818  0.00000000       0.008
   0.33333333  0.18181818  0.00000000       0.008
   0.50000000  0.18181818  0.00000000       0.008
  -0.33333333  0.18181818  0.00000000       0.008
  -0.16666667  0.18181818  0.00000000       0.008
   0.00000000  0.27272727 -0.00000000       0.008
   0.16666667  0.27272727 -0.00000000       0.008
   0.33333333  0.27272727  0.00000000       0.008
   0.50000000  0.27272727 -0.00000000       0.008
  -0.33333333  0.27272727  0.00000000       0.008
  -0.16666667  0.27272727 -0.00000000       0.008
   0.00000000  0.36363636  0.00000000       0.008
   0.16666667  0.36363636  0.00000000       0.008
   0.33333333  0.36363636  0.00000000       0.008
   0.50000000  0.36363636  0.00000000       0.008
  -0.33333333  0.36363636  0.00000000       0.008
  -0.16666667  0.36363636  0.00000000       0.008
   0.00000000  0.45454545 -0.00000000       0.008
   0.16666667  0.45454545  0.00000000       0.008
   0.33333333  0.45454545  0.00000000       0.008
   0.50000000  0.45454545  0.00000000       0.008
  -0.33333333  0.45454545 -0.00000000       0.008
  -0.16666667  0.45454545 -0.00000000       0.008
   0.00000000  0.00000000  0.25000000       0.008
   0.16666667 -0.00000000  0.25000000       0.008
   0.33333333  0.00000000  0.25000000       0.008
   0.50000000  0.00000000  0.25000000       0.008
  -0.33333333 -0.00000000  0.25000000       0.008
  -0.16666667  0.00000000  0.25000000       0.008
   0.00000000  0.09090909  0.25000000       0.008
   0.16666667  0.09090909  0.25000000       0.008
   0.33333333  0.09090909  0.25000000       0.008
   0.50000000  0.09090909  0.25000000       0.008
  -0.33333333  0.09090909  0.25000000       0.008
  -0.16666667  0.09090909  0.25000000       0.008
   0.00000000  0.18181818  0.25000000       0.008
   0.16666667  0.18181818  0.25000000       0.008
   0.33333333  0.18181818  0.25000000       0.008
   0.50000000  0.18181818  0.25000000       0.008
  -0.33333333  0.18181818  0.25000000       0.008
  -0.16666667  0.18181818  0.25000000       0.008
   0.00000000  0.27272727  0.25000000       0.008
   0.16666667  0.27272727  0.25000000       0.008
   0.33333333  0.27272727  0.25000000       0.008
   0.50000000  0.27272727  0.25000000       0.008
  -0.33333333  0.27272727  0.25000000       0.008
  -0.16666667  0.27272727  0.25000000       0.008
   0.00000000  0.36363636  0.25000000       0.008
   0.16666667  0.36363636  0.25000000       0.008
   0.33333333  0.36363636  0.25000000       0.008
   0.50000000  0.36363636  0.25000000       0.008
  -0.33333333  0.36363636  0.25000000       0.008
  -0.16666667  0.36363636  0.25000000       0.008
   0.00000000  0.45454545  0.25000000       0.008
   0.16666667  0.45454545  0.25000000       0.008
   0.33333333  0.45454545  0.25000000       0.008
   0.50000000  0.45454545  0.25000000       0.008
  -0.33333333  0.45454545  0.25000000       0.008
  -0.16666667  0.45454545  0.25000000       0.008
   0.00000000 -0.45454545  0.25000000       0.008
   0.16666667 -0.45454545  0.25000000       0.008
   0.33333333 -0.45454545  0.25000000       0.008
   0.50000000 -0.45454545  0.25000000       0.008
  -0.33333333 -0.45454545  0.25000000       0.008
  -0.16666667 -0.45454545  0.25000000       0.008
   0.00000000 -0.36363636  0.25000000       0.008
   0.16666667 -0.36363636  0.25000000       0.008
   0.33333333 -0.36363636  0.25000000       0.008
   0.50000000 -0.36363636  0.25000000       0.008
  -0.33333333 -0.36363636  0.25000000       0.008
  -0.16666667 -0.36363636  0.25000000       0.008
   0.00000000 -0.27272727  0.25000000       0.008
   0.16666667 -0.27272727  0.25000000       0.008
   0.33333333 -0.27272727  0.25000000       0.008
   0.50000000 -0.27272727  0.25000000       0.008
  -0.33333333 -0.27272727  0.25000000       0.008
  -0.16666667 -0.27272727  0.25000000       0.008
   0.00000000 -0.18181818  0.25000000       0.008
   0.16666667 -0.18181818  0.25000000       0.008
   0.33333333 -0.18181818  0.25000000       0.008
   0.50000000 -0.18181818  0.25000000       0.008
  -0.33333333 -0.18181818  0.25000000       0.008
  -0.16666667 -0.18181818  0.25000000       0.008
   0.00000000 -0.09090909  0.25000000       0.008
   0.16666667 -0.09090909  0.25000000       0.008
   0.33333333 -0.09090909  0.25000000       0.008
   0.50000000 -0.09090909  0.25000000       0.008
  -0.33333333 -0.09090909  0.25000000       0.008
  -0.16666667 -0.09090909  0.25000000       0.008
   0.00000000  0.00000000  0.50000000       0.004
   0.16666667 -0.00000000  0.50000000       0.008
   0.33333333  0.00000000  0.50000000       0.008
   0.50000000  0.00000000  0.50000000       0.004
   0.00000000  0.09090909  0.50000000       0.008
   0.16666667  0.09090909  0.50000000       0.008
   0.33333333  0.09090909  0.50000000       0.008
   0.50000000  0.09090909  0.50000000       0.008
  -0.33333333  0.09090909  0.50000000       0.008
  -0.16666667  0.09090909  0.50000000       0.008
   0.00000000  0.18181818  0.50000000       0.008
   0.16666667  0.18181818  0.50000000       0.008
   0.33333333  0.18181818  0.50000000       0.008
   0.50000000  0.18181818  0.50000000       0.008
  -0.33333333  0.18181818  0.50000000       0.008
  -0.16666667  0.18181818  0.50000000       0.008
   0.00000000  0.27272727  0.50000000       0.008
   0.16666667  0.27272727  0.50000000       0.008
   0.33333333  0.27272727  0.50000000       0.008
   0.50000000  0.27272727  0.50000000       0.008
  -0.33333333  0.27272727  0.50000000       0.008
  -0.16666667  0.27272727  0.50000000       0.008
   0.00000000  0.36363636  0.50000000       0.008
   0.16666667  0.36363636  0.50000000       0.008
   0.33333333  0.36363636  0.50000000       0.008
   0.50000000  0.36363636  0.50000000       0.008
  -0.33333333  0.36363636  0.50000000       0.008
  -0.16666667  0.36363636  0.50000000       0.008
   0.00000000  0.45454545  0.50000000       0.008
   0.16666667  0.45454545  0.50000000       0.008
   0.33333333  0.45454545  0.50000000       0.008
   0.50000000  0.45454545  0.50000000       0.008
  -0.33333333  0.45454545  0.50000000       0.008
  -0.16666667  0.45454545  0.50000000       0.008
 
 position of ions in fractional coordinates (direct lattice) 
   0.91731867  0.61253814  0.93486603
   0.45811002  0.90438990  0.75984295
   0.98959738  0.35145232  0.74606363
   0.36624300  0.84160035  0.46343031
   0.26204869  0.03696565  0.66200492
   0.28454201  0.32729627  0.34679825
   0.74326930  0.73832795  0.38846809
   0.21126867  0.12379049  0.00443942
   0.64521165  0.26841308  0.04889513
   0.70107081  0.27630305  0.68478076
 
 position of ions in cartesian coordinates  (Angst):
   7.90383710  0.30767350  6.87390733
   5.20358860  1.41850428  5.58699304
   7.58467595 -0.14931497  5.48567608
   3.87662151  1.69868740  3.40752245
   3.18661168 -0.92256692  4.86760699
   2.71251832  0.40174913  2.54994722
   5.62794614  1.51836326  2.85633826
   1.25080594  0.34889499  0.03264226
   3.82426863  0.69547610  0.35951742
   5.80702515 -0.27006750  5.03507385
 


--------------------------------------------------------------------------------------------------------


 k-point  1 :   0.0000 0.0000 0.0000  plane waves:    3443
 k-point  2 :   0.1667-0.0000 0.0000  plane waves:    3432
 k-point  3 :   0.3333 0.0000 0.0000  plane waves:    3415
 k-point  4 :   0.5000 0.0000 0.0000  plane waves:    3408
 k-point  5 :   0.0000 0.0909 0.0000  plane waves:    3434
 k-point  6 :   0.1667 0.0909 0.0000  plane waves:    3430
 k-point  7 :   0.3333 0.0909 0.0000  plane waves:    3435
 k-point  8 :   0.5000 0.0909-0.0000  plane waves:    3420
 k-point  9 :  -0.3333 0.0909 0.0000  plane waves:    3418
 k-point 10 :  -0.1667 0.0909 0.0000  plane waves:    3428
 k-point 11 :   0.0000 0.1818 0.0000  plane waves:    3424
 k-point 12 :   0.1667 0.1818 0.0000  plane waves:    3436
 k-point 13 :   0.3333 0.1818 0.0000  plane waves:    3428
 k-point 14 :   0.5000 0.1818 0.0000  plane waves:    3418
 k-point 15 :  -0.3333 0.1818 0.0000  plane waves:    3424
 k-point 16 :  -0.1667 0.1818 0.0000  plane waves:    3422
 k-point 17 :   0.0000 0.2727-0.0000  plane waves:    3429
 k-point 18 :   0.1667 0.2727-0.0000  plane waves:    3431
 k-point 19 :   0.3333 0.2727 0.0000  plane waves:    3422
 k-point 20 :   0.5000 0.2727-0.0000  plane waves:    3424
 k-point 21 :  -0.3333 0.2727 0.0000  plane waves:    3432
 k-point 22 :  -0.1667 0.2727-0.0000  plane waves:    3412
 k-point 23 :   0.0000 0.3636 0.0000  plane waves:    3439
 k-point 24 :   0.1667 0.3636 0.0000  plane waves:    3438
 k-point 25 :   0.3333 0.3636 0.0000  plane waves:    3425
 k-point 26 :   0.5000 0.3636 0.0000  plane waves:    3430
 k-point 27 :  -0.3333 0.3636 0.0000  plane waves:    3419
 k-point 28 :  -0.1667 0.3636 0.0000  plane waves:    3429
 k-point 29 :   0.0000 0.4545-0.0000  plane waves:    3445
 k-point 30 :   0.1667 0.4545 0.0000  plane waves:    3442
 k-point 31 :   0.3333 0.4545 0.0000  plane waves:    3431
 k-point 32 :   0.5000 0.4545 0.0000  plane waves:    3440
 k-point 33 :  -0.3333 0.4545-0.0000  plane waves:    3431
 k-point 34 :  -0.1667 0.4545-0.0000  plane waves:    3446
 k-point 35 :   0.0000 0.0000 0.2500  plane waves:    3441
 k-point 36 :   0.1667-0.0000 0.2500  plane waves:    3434
 k-point 37 :   0.3333 0.0000 0.2500  plane waves:    3425
 k-point 38 :   0.5000 0.0000 0.2500  plane waves:    3421
 k-point 39 :  -0.3333-0.0000 0.2500  plane waves:    3433
 k-point 40 :  -0.1667 0.0000 0.2500  plane waves:    3436
 k-point 41 :   0.0000 0.0909 0.2500  plane waves:    3437
 k-point 42 :   0.1667 0.0909 0.2500  plane waves:    3439
 k-point 43 :   0.3333 0.0909 0.2500  plane waves:    3427
 k-point 44 :   0.5000 0.0909 0.2500  plane waves:    3414
 k-point 45 :  -0.3333 0.0909 0.2500  plane waves:    3421
 k-point 46 :  -0.1667 0.0909 0.2500  plane waves:    3433
 k-point 47 :   0.0000 0.1818 0.2500  plane waves:    3424
 k-point 48 :   0.1667 0.1818 0.2500  plane waves:    3421
 k-point 49 :   0.3333 0.1818 0.2500  plane waves:    3431
 k-point 50 :   0.5000 0.1818 0.2500  plane waves:    3421
 k-point 51 :  -0.3333 0.1818 0.2500  plane waves:    3415
 k-point 52 :  -0.1667 0.1818 0.2500  plane waves:    3431
 k-point 53 :   0.0000 0.2727 0.2500  plane waves:    3420
 k-point 54 :   0.1667 0.2727 0.2500  plane waves:    3428
 k-point 55 :   0.3333 0.2727 0.2500  plane waves:    3422
 k-point 56 :   0.5000 0.2727 0.2500  plane waves:    3415
 k-point 57 :  -0.3333 0.2727 0.2500  plane waves:    3417
 k-point 58 :  -0.1667 0.2727 0.2500  plane waves:    3415
 k-point 59 :   0.0000 0.3636 0.2500  plane waves:    3428
 k-point 60 :   0.1667 0.3636 0.2500  plane waves:    3445
 k-point 61 :   0.3333 0.3636 0.2500  plane waves:    3432
 k-point 62 :   0.5000 0.3636 0.2500  plane waves:    3430
 k-point 63 :  -0.3333 0.3636 0.2500  plane waves:    3420
 k-point 64 :  -0.1667 0.3636 0.2500  plane waves:    3422
 k-point 65 :   0.0000 0.4545 0.2500  plane waves:    3437
 k-point 66 :   0.1667 0.4545 0.2500  plane waves:    3444
 k-point 67 :   0.3333 0.4545 0.2500  plane waves:    3440
 k-point 68 :   0.5000 0.4545 0.2500  plane waves:    3432
 k-point 69 :  -0.3333 0.4545 0.2500  plane waves:    3431
 k-point 70 :  -0.1667 0.4545 0.2500  plane waves:    3429
 k-point 71 :   0.0000-0.4545 0.2500  plane waves:    3436
 k-point 72 :   0.1667-0.4545 0.2500  plane waves:    3439
 k-point 73 :   0.3333-0.4545 0.2500  plane waves:    3431
 k-point 74 :   0.5000-0.4545 0.2500  plane waves:    3425
 k-point 75 :  -0.3333-0.4545 0.2500  plane waves:    3428
 k-point 76 :  -0.1667-0.4545 0.2500  plane waves:    3418
 k-point 77 :   0.0000-0.3636 0.2500  plane waves:    3425
 k-point 78 :   0.1667-0.3636 0.2500  plane waves:    3431
 k-point 79 :   0.3333-0.3636 0.2500  plane waves:    3428
 k-point 80 :   0.5000-0.3636 0.2500  plane waves:    3421
 k-point 81 :  -0.3333-0.3636 0.2500  plane waves:    3426
 k-point 82 :  -0.1667-0.3636 0.2500  plane waves:    3426
 k-point 83 :   0.0000-0.2727 0.2500  plane waves:    3425
 k-point 84 :   0.1667-0.2727 0.2500  plane waves:    3425
 k-point 85 :   0.3333-0.2727 0.2500  plane waves:    3422
 k-point 86 :   0.5000-0.2727 0.2500  plane waves:    3417
 k-point 87 :  -0.3333-0.2727 0.2500  plane waves:    3432
 k-point 88 :  -0.1667-0.2727 0.2500  plane waves:    3434
 k-point 89 :   0.0000-0.1818 0.2500  plane waves:    3427
 k-point 90 :   0.1667-0.1818 0.2500  plane waves:    3424
 k-point 91 :   0.3333-0.1818 0.2500  plane waves:    3426
 k-point 92 :   0.5000-0.1818 0.2500  plane waves:    3418
 k-point 93 :  -0.3333-0.1818 0.2500  plane waves:    3428
 k-point 94 :  -0.1667-0.1818 0.2500  plane waves:    3427
 k-point 95 :   0.0000-0.0909 0.2500  plane waves:    3433
 k-point 96 :   0.1667-0.0909 0.2500  plane waves:    3435
 k-point 97 :   0.3333-0.0909 0.2500  plane waves:    3418
 k-point 98 :   0.5000-0.0909 0.2500  plane waves:    3422
 k-point 99 :  -0.3333-0.0909 0.2500  plane waves:    3426
 k-point ** :  -0.1667-0.0909 0.2500  plane waves:    3443
 k-point ** :   0.0000 0.0000 0.5000  plane waves:    3434
 k-point ** :   0.1667-0.0000 0.5000  plane waves:    3437
 k-point ** :   0.3333 0.0000 0.5000  plane waves:    3429
 k-point ** :   0.5000 0.0000 0.5000  plane waves:    3414
 k-point ** :   0.0000 0.0909 0.5000  plane waves:    3435
 k-point ** :   0.1667 0.0909 0.5000  plane waves:    3430
 k-point ** :   0.3333 0.0909 0.5000  plane waves:    3430
 k-point ** :   0.5000 0.0909 0.5000  plane waves:    3423
 k-point ** :  -0.3333 0.0909 0.5000  plane waves:    3424
 k-point ** :  -0.1667 0.0909 0.5000  plane waves:    3442
 k-point ** :   0.0000 0.1818 0.5000  plane waves:    3428
 k-point ** :   0.1667 0.1818 0.5000  plane waves:    3427
 k-point ** :   0.3333 0.1818 0.5000  plane waves:    3424
 k-point ** :   0.5000 0.1818 0.5000  plane waves:    3427
 k-point ** :  -0.3333 0.1818 0.5000  plane waves:    3415
 k-point ** :  -0.1667 0.1818 0.5000  plane waves:    3433
 k-point ** :   0.0000 0.2727 0.5000  plane waves:    3439
 k-point ** :   0.1667 0.2727 0.5000  plane waves:    3425
 k-point ** :   0.3333 0.2727 0.5000  plane waves:    3431
 k-point ** :   0.5000 0.2727 0.5000  plane waves:    3415
 k-point ** :  -0.3333 0.2727 0.5000  plane waves:    3418
 k-point ** :  -0.1667 0.2727 0.5000  plane waves:    3412
 k-point ** :   0.0000 0.3636 0.5000  plane waves:    3426
 k-point ** :   0.1667 0.3636 0.5000  plane waves:    3439
 k-point ** :   0.3333 0.3636 0.5000  plane waves:    3440
 k-point ** :   0.5000 0.3636 0.5000  plane waves:    3428
 k-point ** :  -0.3333 0.3636 0.5000  plane waves:    3428
 k-point ** :  -0.1667 0.3636 0.5000  plane waves:    3416
 k-point ** :   0.0000 0.4545 0.5000  plane waves:    3419
 k-point ** :   0.1667 0.4545 0.5000  plane waves:    3429
 k-point ** :   0.3333 0.4545 0.5000  plane waves:    3428
 k-point ** :   0.5000 0.4545 0.5000  plane waves:    3432
 k-point ** :  -0.3333 0.4545 0.5000  plane waves:    3433
 k-point ** :  -0.1667 0.4545 0.5000  plane waves:    3428

 maximum and minimum number of plane-waves per node :      3446     3408

 maximum number of plane-waves:      3446
 maximum index in each direction: 
   IXMAX=   10   IYMAX=    6   IZMAX=   15
   IXMIN=  -10   IYMIN=   -6   IZMIN=  -15


 serial   3D FFT for wavefunctions
 parallel 3D FFT for charge:
    minimum data exchange during FFTs selected (reduces bandwidth)


 total amount of memory used by VASP MPI-rank0   128314. kBytes
=======================================================================

   base      :      30000. kBytes
   nonl-proj :      59830. kBytes
   fftplans  :       1968. kBytes
   grid      :       6131. kBytes
   one-center:         61. kBytes
   wavefun   :      30324. kBytes
 
     INWAV:  cpu time    0.0000: real time    0.0001
 Broyden mixing: mesh for mixing (old mesh)
   NGX = 21   NGY = 11   NGZ = 31
  (NGX  = 60   NGY  = 32   NGZ  = 90)
  gives a total of   7161 points

 initial charge density was supplied:
 charge density of overlapping atoms calculated
 number of electron      40.0000000 magnetization      10.0000000
 keeping initial charge density in first step


--------------------------------------------------------------------------------------------------------


 Maximum index for augmentation-charges         3201 (set IRDMAX)


--------------------------------------------------------------------------------------------------------


 First call to EWALD:  gamma=   0.366
 Maximum number of real-space cells 3x 4x 2
 Maximum number of reciprocal cells 3x 2x 4

    FEWALD:  cpu time    0.0020: real time    0.0015


--------------------------------------- Iteration      1(   1)  ---------------------------------------


    POTLOK:  cpu time    0.0190: real time    0.0189
    SETDIJ:  cpu time    0.2750: real time    0.2772
     EDDAV:  cpu time    8.3367: real time    8.3473
       DOS:  cpu time    0.0020: real time    0.0019
    --------------------------------------------
      LOOP:  cpu time    8.6327: real time    8.6453

 eigenvalue-minimisations  : 17152
 total energy-change (2. order) : 0.9966814E+02  (-0.1938752E+04)
 number of electron      40.0000000 magnetization      10.0000000
 augmentation part       40.0000000 magnetization      10.0000000

 Free energy of the ion-electron system (eV)
  ---------------------------------------------------
  alpha Z        PSCENC =        50.82833291
  Ewald energy   TEWEN  =     -1188.59264153
  -Hartree energ DENC   =      -293.71900513
  -exchange      EXHF   =         0.00000000
  -V(xc)+E(xc)   XCENC  =        23.18089899
  PAW double counting   =       982.13984335     -896.94558521
  entropy T*S    EENTRO =        -0.00023596
  eigenvalues    EBANDS =       171.69631751
  atomic energy  EATOM  =      1251.08021953
  Solvation  Ediel_sol  =         0.00000000
  ---------------------------------------------------
  free energy    TOTEN  =        99.66814448 eV

  energy without entropy =       99.66838043  energy(sigma->0) =       99.66826245


--------------------------------------------------------------------------------------------------------




--------------------------------------- Iteration      1(   2)  ---------------------------------------


     EDDAV:  cpu time   10.7794: real time   10.7933
       DOS:  cpu time    0.0020: real time    0.0019
    --------------------------------------------
      LOOP:  cpu time   10.7814: real time   10.7952

 eigenvalue-minimisations  : 23312
 total energy-change (2. order) :-0.1609693E+03  (-0.1561988E+03)
 number of electron      40.0000000 magnetization      10.0000000
 augmentation part       40.0000000 magnetization      10.0000000

 Free energy of the ion-electron system (eV)
  ---------------------------------------------------
  alpha Z        PSCENC =        50.82833291
  Ewald energy   TEWEN  =     -1188.59264153
  -Hartree energ DENC   =      -293.71900513
  -exchange      EXHF   =         0.00000000
  -V(xc)+E(xc)   XCENC  =        23.18089899
  PAW double counting   =       982.13984335     -896.94558521
  entropy T*S    EENTRO =        -0.00056452
  eigenvalues    EBANDS =        10.72729965
  atomic energy  EATOM  =      1251.08021953
  Solvation  Ediel_sol  =         0.00000000
  ---------------------------------------------------
  free energy    TOTEN  =       -61.30120195 eV

  energy without entropy =      -61.30063743  energy(sigma->0) =      -61.30091969


--------------------------------------------------------------------------------------------------------




--------------------------------------- Iteration      1(   3)  ---------------------------------------


     EDDAV:  cpu time   11.2973: real time   11.3144
       DOS:  cpu time    0.0020: real time    0.0019
    --------------------------------------------
      LOOP:  cpu time   11.2993: real time   11.3163

 eigenvalue-minimisations  : 24448
 total energy-change (2. order) :-0.7821241E+01  (-0.7787991E+01)
 number of electron      40.0000000 magnetization      10.0000000
 augmentation part       40.0000000 magnetization      10.0000000

 Free energy of the ion-electron system (eV)
  ---------------------------------------------------
  alpha Z        PSCENC =        50.82833291
  Ewald energy   TEWEN  =     -1188.59264153
  -Hartree energ DENC   =      -293.71900513
  -exchange      EXHF   =         0.00000000
  -V(xc)+E(xc)   XCENC  =        23.18089899
  PAW double counting   =       982.13984335     -896.94558521
  entropy T*S    EENTRO =        -0.00058108
  eigenvalues    EBANDS =         2.90607478
  atomic energy  EATOM  =      1251.08021953
  Solvation  Ediel_sol  =         0.00000000
  ---------------------------------------------------
  free energy    TOTEN  =       -69.12244338 eV

  energy without entropy =      -69.12186230  energy(sigma->0) =      -69.12215284


--------------------------------------------------------------------------------------------------------




--------------------------------------- Iteration      1(   4)  ---------------------------------------


     EDDAV:  cpu time   10.4334: real time   10.4515
       DOS:  cpu time    0.0020: real time    0.0019
    --------------------------------------------
      LOOP:  cpu time   10.4354: real time   10.4534

 eigenvalue-minimisations  : 22416
 total energy-change (2. order) :-0.7279289E-01  (-0.7278373E-01)
 number of electron      40.0000000 magnetization      10.0000000
 augmentation part       40.0000000 magnetization      10.0000000

 Free energy of the ion-electron system (eV)
  ---------------------------------------------------
  alpha Z        PSCENC =        50.82833291
  Ewald energy   TEWEN  =     -1188.59264153
  -Hartree energ DENC   =      -293.71900513
  -exchange      EXHF   =         0.00000000
  -V(xc)+E(xc)   XCENC  =        23.18089899
  PAW double counting   =       982.13984335     -896.94558521
  entropy T*S    EENTRO =        -0.00058021
  eigenvalues    EBANDS =         2.83328102
  atomic energy  EATOM  =      1251.08021953
  Solvation  Ediel_sol  =         0.00000000
  ---------------------------------------------------
  free energy    TOTEN  =       -69.19523627 eV

  energy without entropy =      -69.19465606  energy(sigma->0) =      -69.19494617


--------------------------------------------------------------------------------------------------------




--------------------------------------- Iteration      1(   5)  ---------------------------------------


     EDDAV:  cpu time   11.2803: real time   11.3119
       DOS:  cpu time    0.0020: real time    0.0019
    CHARGE:  cpu time    0.5589: real time    0.5592
    MIXING:  cpu time    0.0010: real time    0.0008
    --------------------------------------------
      LOOP:  cpu time   11.8422: real time   11.8738

 eigenvalue-minimisations  : 24480
 total energy-change (2. order) :-0.1208452E-02  (-0.1208379E-02)
 number of electron      40.0000000 magnetization       4.2359892
 augmentation part       -0.4665941 magnetization       2.7702689

 Broyden mixing:
  rms(total) = 0.18420E+01    rms(broyden)= 0.18419E+01
  rms(prec ) = 0.27222E+01
  weight for this iteration     100.00

 Free energy of the ion-electron system (eV)
  ---------------------------------------------------
  alpha Z        PSCENC =        50.82833291
  Ewald energy   TEWEN  =     -1188.59264153
  -Hartree energ DENC   =      -293.71900513
  -exchange      EXHF   =         0.00000000
  -V(xc)+E(xc)   XCENC  =        23.18089899
  PAW double counting   =       982.13984335     -896.94558521
  entropy T*S    EENTRO =        -0.00058020
  eigenvalues    EBANDS =         2.83207256
  atomic energy  EATOM  =      1251.08021953
  Solvation  Ediel_sol  =         0.00000000
  ---------------------------------------------------
  free energy    TOTEN  =       -69.19644473 eV

  energy without entropy =      -69.19586452  energy(sigma->0) =      -69.19615462


--------------------------------------------------------------------------------------------------------




--------------------------------------- Iteration      1(   6)  ---------------------------------------


    POTLOK:  cpu time    0.0160: real time    0.0162
    SETDIJ:  cpu time    0.2680: real time    0.2684
     EDDAV:  cpu time   10.6654: real time   10.6793
       DOS:  cpu time    0.0020: real time    0.0020
    CHARGE:  cpu time    0.5579: real time    0.5590
    MIXING:  cpu time    0.0010: real time    0.0007
    --------------------------------------------
      LOOP:  cpu time   11.5103: real time   11.5256

 eigenvalue-minimisations  : 23104
 total energy-change (2. order) : 0.4002379E+01  (-0.2715793E+01)
 number of electron      40.0000000 magnetization       2.1457654
 augmentation part       -0.7199542 magnetization       1.0792761

 Broyden mixing:
  rms(total) = 0.84115E+00    rms(broyden)= 0.84110E+00
  rms(prec ) = 0.10328E+01
  weight for this iteration     100.00

 eigenvalues of (default mixing * dielectric matrix)
  average eigenvalue GAMMA=   1.0265
  1.0265

 Free energy of the ion-electron system (eV)
  ---------------------------------------------------
  alpha Z        PSCENC =        50.82833291
  Ewald energy   TEWEN  =     -1188.59264153
  -Hartree energ DENC   =      -336.69329449
  -exchange      EXHF   =         0.00000000
  -V(xc)+E(xc)   XCENC  =        24.38711781
  PAW double counting   =      1928.77652683    -1844.04240865
  entropy T*S    EENTRO =        -0.00070411
  eigenvalues    EBANDS =        49.06278615
  atomic energy  EATOM  =      1251.08021953
  Solvation  Ediel_sol  =         0.00000000
  ---------------------------------------------------
  free energy    TOTEN  =       -65.19406555 eV

  energy without entropy =      -65.19336144  energy(sigma->0) =      -65.19371349


--------------------------------------------------------------------------------------------------------




--------------------------------------- Iteration      1(   7)  ---------------------------------------


    POTLOK:  cpu time    0.0160: real time    0.0158
    SETDIJ:  cpu time    0.2680: real time    0.2682
     EDDAV:  cpu time   10.1445: real time   10.1734
       DOS:  cpu time    0.0020: real time    0.0019
    CHARGE:  cpu time    0.5659: real time    0.5673
    MIXING:  cpu time    0.0010: real time    0.0006
    --------------------------------------------
      LOOP:  cpu time   10.9973: real time   11.0273

 eigenvalue-minimisations  : 21840
 total energy-change (2. order) :-0.5865014E+00  (-0.4880801E+00)
 number of electron      40.0000000 magnetization       0.6931399
 augmentation part       -0.7514491 magnetization       0.1619361

 Broyden mixing:
  rms(total) = 0.42902E+00    rms(broyden)= 0.42900E+00
  rms(prec ) = 0.48712E+00
  weight for this iteration     100.00

 eigenvalues of (default mixing * dielectric matrix)
  average eigenvalue GAMMA=   1.1450
  0.7829  1.5071

 Free energy of the ion-electron system (eV)
  ---------------------------------------------------
  alpha Z        PSCENC =        50.82833291
  Ewald energy   TEWEN  =     -1188.59264153
  -Hartree energ DENC   =      -336.23682513
  -exchange      EXHF   =         0.00000000
  -V(xc)+E(xc)   XCENC  =        24.54736967
  PAW double counting   =      2750.36718907    -2665.81552139
  entropy T*S    EENTRO =        -0.00043189
  eigenvalues    EBANDS =        48.04174185
  atomic energy  EATOM  =      1251.08021953
  Solvation  Ediel_sol  =         0.00000000
  ---------------------------------------------------
  free energy    TOTEN  =       -65.78056691 eV

  energy without entropy =      -65.78013501  energy(sigma->0) =      -65.78035096


--------------------------------------------------------------------------------------------------------




--------------------------------------- Iteration      1(   8)  ---------------------------------------


    POTLOK:  cpu time    0.0150: real time    0.0159
    SETDIJ:  cpu time    0.2690: real time    0.2682
     EDDAV:  cpu time   11.6422: real time   11.6583
       DOS:  cpu time    0.0010: real time    0.0018
    CHARGE:  cpu time    0.5579: real time    0.5579
    MIXING:  cpu time    0.0010: real time    0.0006
    --------------------------------------------
      LOOP:  cpu time   12.4861: real time   12.5027

 eigenvalue-minimisations  : 25296
 total energy-change (2. order) :-0.7522543E-01  (-0.2777031E-01)
 number of electron      40.0000000 magnetization       0.0057855
 augmentation part       -0.7511699 magnetization      -0.2106371

 Broyden mixing:
  rms(total) = 0.19948E+00    rms(broyden)= 0.19947E+00
  rms(prec ) = 0.22444E+00
  weight for this iteration     100.00

 eigenvalues of (default mixing * dielectric matrix)
  average eigenvalue GAMMA=   1.2097
  1.9141  1.0263  0.6886

 Free energy of the ion-electron system (eV)
  ---------------------------------------------------
  alpha Z        PSCENC =        50.82833291
  Ewald energy   TEWEN  =     -1188.59264153
  -Hartree energ DENC   =      -338.40842225
  -exchange      EXHF   =         0.00000000
  -V(xc)+E(xc)   XCENC  =        24.77505171
  PAW double counting   =      3338.51078265    -3254.02886316
  entropy T*S    EENTRO =        -0.00058767
  eigenvalues    EBANDS =        49.98033546
  atomic energy  EATOM  =      1251.08021953
  Solvation  Ediel_sol  =         0.00000000
  ---------------------------------------------------
  free energy    TOTEN  =       -65.85579234 eV

  energy without entropy =      -65.85520467  energy(sigma->0) =      -65.85549851


--------------------------------------------------------------------------------------------------------




--------------------------------------- Iteration      1(   9)  ---------------------------------------


    POTLOK:  cpu time    0.0160: real time    0.0158
    SETDIJ:  cpu time    0.2680: real time    0.2683
     EDDAV:  cpu time   11.2773: real time   11.3032
       DOS:  cpu time    0.0020: real time    0.0020
    CHARGE:  cpu time    0.5569: real time    0.5580
    MIXING:  cpu time    0.0010: real time    0.0006
    --------------------------------------------
      LOOP:  cpu time   12.1212: real time   12.1480

 eigenvalue-minimisations  : 24496
 total energy-change (2. order) :-0.1337618E-01  (-0.8650950E-02)
 number of electron      40.0000000 magnetization      -0.0619538
 augmentation part       -0.7502609 magnetization      -0.0860095

 Broyden mixing:
  rms(total) = 0.74885E-01    rms(broyden)= 0.74883E-01
  rms(prec ) = 0.82731E-01
  weight for this iteration     100.00

 eigenvalues of (default mixing * dielectric matrix)
  average eigenvalue GAMMA=   1.1953
  2.1544  1.1796  0.8169  0.6304

 Free energy of the ion-electron system (eV)
  ---------------------------------------------------
  alpha Z        PSCENC =        50.82833291
  Ewald energy   TEWEN  =     -1188.59264153
  -Hartree energ DENC   =      -339.42540273
  -exchange      EXHF   =         0.00000000
  -V(xc)+E(xc)   XCENC  =        24.95038010
  PAW double counting   =      3730.91359136    -3646.46694164
  entropy T*S    EENTRO =        -0.00070409
  eigenvalues    EBANDS =        50.84399757
  atomic energy  EATOM  =      1251.08021953
  Solvation  Ediel_sol  =         0.00000000
  ---------------------------------------------------
  free energy    TOTEN  =       -65.86916852 eV

  energy without entropy =      -65.86846443  energy(sigma->0) =      -65.86881648


--------------------------------------------------------------------------------------------------------




--------------------------------------- Iteration      1(  10)  ---------------------------------------


    POTLOK:  cpu time    0.0160: real time    0.0159
    SETDIJ:  cpu time    0.2770: real time    0.2774
     EDDAV:  cpu time   11.3973: real time   11.4139
       DOS:  cpu time    0.0020: real time    0.0020
    CHARGE:  cpu time    0.5569: real time    0.5581
    MIXING:  cpu time    0.0010: real time    0.0007
    --------------------------------------------
      LOOP:  cpu time   12.2501: real time   12.2680

 eigenvalue-minimisations  : 24800
 total energy-change (2. order) : 0.2087916E-02  (-0.6945785E-03)
 number of electron      40.0000000 magnetization      -0.0236783
 augmentation part       -0.7500112 magnetization      -0.0241843

 Broyden mixing:
  rms(total) = 0.28802E-01    rms(broyden)= 0.28801E-01
  rms(prec ) = 0.33148E-01
  weight for this iteration     100.00

 eigenvalues of (default mixing * dielectric matrix)
  average eigenvalue GAMMA=   1.1735
  2.2544  1.3177  0.9339  0.7596  0.6018

 Free energy of the ion-electron system (eV)
  ---------------------------------------------------
  alpha Z        PSCENC =        50.82833291
  Ewald energy   TEWEN  =     -1188.59264153
  -Hartree energ DENC   =      -339.60243336
  -exchange      EXHF   =         0.00000000
  -V(xc)+E(xc)   XCENC  =        24.99264858
  PAW double counting   =      3806.54523497    -3722.10433843
  entropy T*S    EENTRO =        -0.00075469
  eigenvalues    EBANDS =        50.98665141
  atomic energy  EATOM  =      1251.08021953
  Solvation  Ediel_sol  =         0.00000000
  ---------------------------------------------------
  free energy    TOTEN  =       -65.86708061 eV

  energy without entropy =      -65.86632591  energy(sigma->0) =      -65.86670326


--------------------------------------------------------------------------------------------------------




--------------------------------------- Iteration      1(  11)  ---------------------------------------


    POTLOK:  cpu time    0.0160: real time    0.0161
    SETDIJ:  cpu time    0.2690: real time    0.2688
     EDDAV:  cpu time   11.3023: real time   11.3158
       DOS:  cpu time    0.0020: real time    0.0019
    CHARGE:  cpu time    0.5589: real time    0.5600
    MIXING:  cpu time    0.0010: real time    0.0007
    --------------------------------------------
      LOOP:  cpu time   12.1492: real time   12.1633

 eigenvalue-minimisations  : 24464
 total energy-change (2. order) :-0.4661123E-03  (-0.2681931E-03)
 number of electron      40.0000000 magnetization       0.0002756
 augmentation part       -0.7504816 magnetization       0.0037567

 Broyden mixing:
  rms(total) = 0.12988E-01    rms(broyden)= 0.12988E-01
  rms(prec ) = 0.14938E-01
  weight for this iteration     100.00

 eigenvalues of (default mixing * dielectric matrix)
  average eigenvalue GAMMA=   1.2121
  2.3274  1.7367  1.0389  0.7820  0.7820  0.6055

 Free energy of the ion-electron system (eV)
  ---------------------------------------------------
  alpha Z        PSCENC =        50.82833291
  Ewald energy   TEWEN  =     -1188.59264153
  -Hartree energ DENC   =      -339.71941504
  -exchange      EXHF   =         0.00000000
  -V(xc)+E(xc)   XCENC  =        25.00801162
  PAW double counting   =      3816.35936725    -3731.91622844
  entropy T*S    EENTRO =        -0.00077709
  eigenvalues    EBANDS =        51.08558408
  atomic energy  EATOM  =      1251.08021953
  Solvation  Ediel_sol  =         0.00000000
  ---------------------------------------------------
  free energy    TOTEN  =       -65.86754672 eV

  energy without entropy =      -65.86676962  energy(sigma->0) =      -65.86715817


--------------------------------------------------------------------------------------------------------




--------------------------------------- Iteration      1(  12)  ---------------------------------------


    POTLOK:  cpu time    0.0160: real time    0.0159
    SETDIJ:  cpu time    0.2690: real time    0.2690
     EDDAV:  cpu time   11.5852: real time   11.5958
       DOS:  cpu time    0.0020: real time    0.0020
    CHARGE:  cpu time    0.5589: real time    0.5604
    MIXING:  cpu time    0.0010: real time    0.0008
    --------------------------------------------
      LOOP:  cpu time   12.4321: real time   12.4437

 eigenvalue-minimisations  : 25136
 total energy-change (2. order) :-0.1482633E-03  (-0.4277958E-04)
 number of electron      40.0000000 magnetization       0.0034244
 augmentation part       -0.7507144 magnetization       0.0041809

 Broyden mixing:
  rms(total) = 0.54663E-02    rms(broyden)= 0.54662E-02
  rms(prec ) = 0.62945E-02
  weight for this iteration     100.00

 eigenvalues of (default mixing * dielectric matrix)
  average eigenvalue GAMMA=   1.2039
  2.3674  1.9223  0.9551  0.9551  0.9315  0.6806  0.6153

 Free energy of the ion-electron system (eV)
  ---------------------------------------------------
  alpha Z        PSCENC =        50.82833291
  Ewald energy   TEWEN  =     -1188.59264153
  -Hartree energ DENC   =      -339.75053732
  -exchange      EXHF   =         0.00000000
  -V(xc)+E(xc)   XCENC  =        25.01411029
  PAW double counting   =      3814.52334153    -3730.07845646
  entropy T*S    EENTRO =        -0.00077483
  eigenvalues    EBANDS =        51.10871091
  atomic energy  EATOM  =      1251.08021953
  Solvation  Ediel_sol  =         0.00000000
  ---------------------------------------------------
  free energy    TOTEN  =       -65.86769498 eV

  energy without entropy =      -65.86692015  energy(sigma->0) =      -65.86730757


--------------------------------------------------------------------------------------------------------




--------------------------------------- Iteration      1(  13)  ---------------------------------------


    POTLOK:  cpu time    0.0160: real time    0.0158
    SETDIJ:  cpu time    0.2690: real time    0.2688
     EDDAV:  cpu time   11.2743: real time   11.3000
       DOS:  cpu time    0.0020: real time    0.0020
    CHARGE:  cpu time    0.5619: real time    0.5616
    MIXING:  cpu time    0.0010: real time    0.0008
    --------------------------------------------
      LOOP:  cpu time   12.1242: real time   12.1490

 eigenvalue-minimisations  : 24496
 total energy-change (2. order) :-0.1560068E-04  (-0.8204416E-05)
 number of electron      40.0000000 magnetization       0.0035619
 augmentation part       -0.7506495 magnetization       0.0031249

 Broyden mixing:
  rms(total) = 0.27173E-02    rms(broyden)= 0.27173E-02
  rms(prec ) = 0.29564E-02
  weight for this iteration     100.00

 eigenvalues of (default mixing * dielectric matrix)
  average eigenvalue GAMMA=   1.2376
  2.3096  2.3096  1.1792  1.0275  1.0275  0.7568  0.6663  0.6243

 Free energy of the ion-electron system (eV)
  ---------------------------------------------------
[...]
     20       7.6168      1.00000
     21       8.1551      1.00000
     22       8.7423      0.00000
     23       9.5564      0.00000
     24      10.2942      0.00000
     25      10.5856      0.00000
     26      11.0506      0.00000
     27      11.7875      0.00000
     28      12.4786      0.00000
     29      13.1433      0.00000
     30      13.6728      0.00000
     31      14.4530      0.00000
     32      15.2376      0.00000

 k-point   129 :       0.0000    0.4545    0.5000
  band No.  band energies     occupation 
      1      -8.2810      1.00000
      2      -5.9584      1.00000
      3      -4.6257      1.00000
      4      -2.8897      1.00000
      5      -1.4995      1.00000
      6      -1.0580      1.00000
      7      -0.0832      1.00000
      8       0.5405      1.00000
      9       0.9359      1.00000
     10       1.3948      1.00000
     11       1.7230      1.00000
     12       2.0371      1.00000
     13       2.5639      1.00000
     14       3.4183      1.00000
     15       3.9488      1.00000
     16       4.4621      1.00000
     17       5.3715      1.00000
     18       5.8610      1.00000
     19       6.4604      1.00000
     20       7.8728      1.00000
     21       8.0736      1.00000
     22       8.7995      0.00000
     23       9.5857      0.00000
     24      10.2038      0.00000
     25      10.6537      0.00000
     26      11.0702      0.00000
     27      11.9656      0.00000
     28      12.0604      0.00000
     29      13.0695      0.00000
     30      13.5558      0.00000
     31      14.4538      0.00000
     32      14.8000      0.00000

 k-point   130 :       0.1667    0.4545    0.5000
  band No.  band energies     occupation 
      1      -8.3211      1.00000
      2      -5.8855      1.00000
      3      -4.5262      1.00000
      4      -2.8815      1.00000
      5      -1.6429      1.00000
      6      -1.0531      1.00000
      7      -0.2860      1.00000
      8       0.2769      1.00000
      9       0.8890      1.00000
     10       1.1488      1.00000
     11       1.7762      1.00000
     12       2.6936      1.00000
     13       3.0185      1.00000
     14       3.8582      1.00000
     15       3.9947      1.00000
     16       4.4662      1.00000
     17       4.8122      1.00000
     18       5.2654      1.00000
     19       6.5388      1.00000
     20       7.2772      1.00000
     21       8.1522      1.00000
     22       9.0741      0.00000
     23      10.0097      0.00000
     24      10.2335      0.00000
     25      10.8326      0.00000
     26      11.2843      0.00000
     27      11.9639      0.00000
     28      12.2431      0.00000
     29      12.8706      0.00000
     30      13.6772      0.00000
     31      14.5160      0.00000
     32      14.6364      0.00000

 k-point   131 :       0.3333    0.4545    0.5000
  band No.  band energies     occupation 
      1      -8.3403      1.00000
      2      -5.8294      1.00000
      3      -4.3945      1.00000
      4      -2.8932      1.00000
      5      -1.8700      1.00000
      6      -1.2230      1.00000
      7      -0.4680      1.00000
      8       0.0982      1.00000
      9       0.7574      1.00000
     10       1.3480      1.00000
     11       2.3071      1.00000
     12       2.8066      1.00000
     13       3.2757      1.00000
     14       3.5984      1.00000
     15       4.0872      1.00000
     16       4.7267      1.00000
     17       4.8771      1.00000
     18       5.3681      1.00000
     19       6.5216      1.00000
     20       7.0125      1.00000
     21       7.9393      1.00000
     22       9.0668      0.00000
     23       9.7670      0.00000
     24      10.0396      0.00000
     25      10.6442      0.00000
     26      11.4832      0.00000
     27      11.8710      0.00000
     28      12.5003      0.00000
     29      13.2915      0.00000
     30      13.7302      0.00000
     31      14.2076      0.00000
     32      14.7323      0.00000

 k-point   132 :       0.5000    0.4545    0.5000
  band No.  band energies     occupation 
      1      -8.3216      1.00000
      2      -5.8280      1.00000
      3      -4.4348      1.00000
      4      -2.8650      1.00000
      5      -1.8752      1.00000
      6      -1.2543      1.00000
      7      -0.7016      1.00000
      8       0.1566      1.00000
      9       0.6806      1.00000
     10       1.5956      1.00000
     11       2.1601      1.00000
     12       2.9679      1.00000
     13       3.4129      1.00000
     14       3.5211      1.00000
     15       4.1530      1.00000
     16       4.5726      1.00000
     17       4.9140      1.00000
     18       6.0059      1.00000
     19       6.2006      1.00000
     20       7.7259      1.00000
     21       8.0161      1.00000
     22       8.5477      0.00000
     23       9.4049      0.00000
     24       9.7892      0.00000
     25      10.0565      0.00000
     26      11.2871      0.00000
     27      12.0578      0.00000
     28      12.5653      0.00000
     29      13.4088      0.00000
     30      13.7324      0.00000
     31      14.4641      0.00000
     32      14.7815      0.00000

 k-point   133 :      -0.3333    0.4545    0.5000
  band No.  band energies     occupation 
      1      -8.2821      1.00000
      2      -5.8922      1.00000
      3      -4.5784      1.00000
      4      -2.8415      1.00000
      5      -1.7600      1.00000
      6      -1.1423      1.00000
      7      -0.4956      1.00000
      8       0.2748      1.00000
      9       0.7918      1.00000
     10       1.2531      1.00000
     11       1.9571      1.00000
     12       2.7109      1.00000
     13       2.9637      1.00000
     14       3.9572      1.00000
     15       4.2914      1.00000
     16       4.7089      1.00000
     17       4.9779      1.00000
     18       5.9128      1.00000
     19       6.5595      1.00000
     20       7.2517      1.00000
     21       7.8549      1.00000
     22       9.1207      0.00000
     23       9.2579      0.00000
     24       9.9725      0.00000
     25      10.4101      0.00000
     26      11.0342      0.00000
     27      11.5912      0.00000
     28      12.2750      0.00000
     29      12.8906      0.00000
     30      14.1824      0.00000
     31      14.4040      0.00000
     32      14.7005      0.00000

 k-point   134 :      -0.1667    0.4545    0.5000
  band No.  band energies     occupation 
      1      -8.2606      1.00000
      2      -5.9665      1.00000
      3      -4.6422      1.00000
      4      -2.8683      1.00000
      5      -1.6534      1.00000
      6      -1.0530      1.00000
      7      -0.0806      1.00000
      8       0.6079      1.00000
      9       0.8867      1.00000
     10       1.2725      1.00000
     11       1.5724      1.00000
     12       2.1429      1.00000
     13       2.6477      1.00000
     14       3.5876      1.00000
     15       4.1764      1.00000
     16       4.7436      1.00000
     17       5.3513      1.00000
     18       5.9653      1.00000
     19       6.5253      1.00000
     20       7.5223      1.00000
     21       7.9393      1.00000
     22       8.8876      0.00000
     23       9.6911      0.00000
     24      10.1082      0.00000
     25      10.3330      0.00000
     26      10.9149      0.00000
     27      11.6765      0.00000
     28      12.3382      0.00000
     29      12.7926      0.00000
     30      13.6744      0.00000
     31      14.4465      0.00000
     32      14.8788      0.00000


--------------------------------------------------------------------------------------------------------


 soft charge-density along one line, spin component           1
         0         1         2         3         4         5         6         7         8         9
 total charge-density along one line
 
 soft charge-density along one line, spin component           2
         0         1         2         3         4         5         6         7         8         9
 total charge-density along one line
 
 pseudopotential strength for first ion, spin component:           1
  9.523  12.649  -0.005  -0.002  -0.005   0.013   0.009   0.013
 12.649  16.799  -0.006  -0.003  -0.007   0.017   0.012   0.017
 -0.005  -0.006  -3.752  -0.003  -0.000   7.354   0.005   0.000
 -0.002  -0.003  -0.003  -3.755  -0.001   0.005   7.360   0.001
 -0.005  -0.007  -0.000  -0.001  -3.749   0.000   0.001   7.351
  0.013   0.017   7.354   0.005   0.000 -16.517  -0.007  -0.001
  0.009   0.012   0.005   7.360   0.001  -0.007 -16.525  -0.002
  0.013   0.017   0.000   0.001   7.351  -0.001  -0.002 -16.514
 pseudopotential strength for first ion, spin component:           2
  9.523  12.649  -0.005  -0.002  -0.005   0.013   0.009   0.013
 12.649  16.799  -0.006  -0.003  -0.007   0.017   0.012   0.017
 -0.005  -0.006  -3.752  -0.003  -0.000   7.354   0.005   0.000
 -0.002  -0.003  -0.003  -3.755  -0.001   0.005   7.360   0.001
 -0.005  -0.007  -0.000  -0.001  -3.749   0.000   0.001   7.351
  0.013   0.017   7.354   0.005   0.000 -16.517  -0.007  -0.001
  0.009   0.012   0.005   7.360   0.001  -0.007 -16.525  -0.002
  0.013   0.017   0.000   0.001   7.351  -0.001  -0.002 -16.514
 total augmentation occupancy for first ion, spin component:           1
  5.527  -2.145  -0.195  -0.341  -0.224  -0.034  -0.054  -0.035
 -2.145   0.961   0.160   0.232   0.180   0.020   0.029   0.020
 -0.195   0.160   1.350   0.099   0.001   0.090   0.015  -0.001
 -0.341   0.232   0.099   1.434   0.022   0.015   0.111   0.006
 -0.224   0.180   0.001   0.022   1.194  -0.001   0.006   0.076
 -0.034   0.020   0.090   0.015  -0.001   0.007   0.002  -0.000
 -0.054   0.029   0.015   0.111   0.006   0.002   0.010   0.001
 -0.035   0.020  -0.001   0.006   0.076  -0.000   0.001   0.006
 total augmentation occupancy for first ion, spin component:           2
  0.000  -0.000  -0.000   0.000   0.000  -0.000   0.000   0.000
 -0.000   0.000   0.000  -0.000  -0.000   0.000  -0.000  -0.000
 -0.000   0.000  -0.000  -0.000  -0.000   0.000   0.000  -0.000
  0.000  -0.000  -0.000   0.000  -0.000  -0.000   0.000   0.000
  0.000  -0.000  -0.000  -0.000   0.000  -0.000   0.000   0.000
 -0.000   0.000   0.000  -0.000  -0.000   0.000   0.000  -0.000
  0.000  -0.000   0.000   0.000   0.000   0.000   0.000   0.000
  0.000  -0.000  -0.000   0.000   0.000  -0.000   0.000   0.000


------------------------ aborting loop because EDIFF is reached ----------------------------------------


 


 total charge     
 
# of ion       s       p       d       tot
------------------------------------------
    1        0.860   1.532   0.000   2.392
    2        0.861   1.683   0.000   2.544
    3        0.867   1.695   0.000   2.562
    4        0.865   1.708   0.000   2.573
    5        0.866   1.676   0.000   2.542
    6        0.783   0.826   0.000   1.609
    7        0.797   0.772   0.000   1.569
    8        0.808   0.740   0.000   1.548
    9        0.772   0.810   0.000   1.581
   10        0.737   0.926   0.000   1.662
--------------------------------------------------
tot          8.216  12.365   0.000  20.581
 


 magnetization (x)
 
# of ion       s       p       d       tot
------------------------------------------
    1        0.000  -0.000   0.000  -0.000
    2        0.000   0.000   0.000   0.000
    3        0.000  -0.000   0.000  -0.000
    4        0.000   0.000   0.000   0.000
    5        0.000   0.000   0.000   0.000
    6        0.000   0.000   0.000   0.000
    7        0.000   0.000   0.000   0.000
    8        0.000   0.000   0.000   0.000
    9       -0.000  -0.000   0.000  -0.000
   10       -0.000  -0.000   0.000  -0.000
--------------------------------------------------
tot          0.000   0.000   0.000   0.000
 
    CHARGE:  cpu time    0.5569: real time    0.5587
    FORLOC:  cpu time    0.0010: real time    0.0008
    FORNL :  cpu time    1.2128: real time    1.2136
    STRESS:  cpu time    4.2654: real time    4.3077
    FORCOR:  cpu time    0.0150: real time    0.0142
    FORHAR:  cpu time    0.0020: real time    0.0019
    MIXING:  cpu time    0.0000: real time    0.0011
    OFIELD:  cpu time    0.0010: real time    0.0001

  FORCE on cell =-STRESS in cart. coord.  units (eV):
  Direction    XX          YY          ZZ          XY          YZ          ZX
  --------------------------------------------------------------------------------------
  Alpha Z    50.82833    50.82833    50.82833
  Ewald    -314.75334  -352.25528  -521.58626   -55.97456    66.76490    -9.21585
  Hartree   162.07017   207.37597   -29.68593    -4.44467    22.93163    -9.39545
  E(xc)    -138.46832  -138.67448  -138.13827    -0.23650     0.23575     0.18122
  Local    -358.39217  -375.14982    42.50807    55.57339   -85.66820    20.59116
  n-local   180.09435   174.54749   174.68084    -0.47857    -0.54000    -1.85195
  augment   -31.20436   -30.86799   -31.29751     0.08742     0.05526     0.12767
  Kinetic   446.33513   465.35058   457.99213     7.32342    -5.69283    -1.43037
  Fock        0.00000     0.00000     0.00000     0.00000     0.00000     0.00000
  -------------------------------------------------------------------------------------
  Total      -3.49021     1.15479     5.30140     1.84993    -1.91350    -0.99356
  in kB     -49.08544    16.24074    74.55753    26.01696   -26.91093   -13.97323
  external pressure =       13.90 kB  Pullay stress =        0.00 kB


 VOLUME and BASIS-vectors are now :
 -----------------------------------------------------------------------------
  energy-cutoff  :      560.00
  volume of cell :      113.92
      direct lattice vectors                 reciprocal lattice vectors
     5.390682196  0.000000000  0.000000000     0.185505278 -0.052257216 -0.077511471
     0.809657977  2.874164390  0.000000000     0.000000000  0.347927211  0.073537528
     2.634513610 -1.554085562  7.352826058     0.000000000  0.000000000  0.136002129

  length of vectors
     5.390682196  2.986028631  7.963660901     0.207728315  0.355613712  0.136002129


 FORCES acting on ions
    electron-ion (+dipol)            ewald-force                    non-local-force                 convergence-correction
 -----------------------------------------------------------------------------------------------
   -.135E+02 -.264E+02 -.127E+03   0.165E+02 0.293E+02 0.130E+03   -.384E+01 -.362E+01 -.197E+01   -.275E-05 0.589E-05 -.105E-04
   -.577E+02 0.247E+02 -.448E+02   0.598E+02 -.271E+02 0.475E+02   -.355E+01 0.318E+01 -.331E+01   -.114E-04 -.320E-05 0.804E-05
   0.675E+02 -.371E+02 0.155E+02   -.690E+02 0.401E+02 -.184E+02   0.285E+01 -.317E+01 0.351E+01   0.968E-07 -.883E-05 -.201E-04
   0.203E+02 0.173E+02 0.118E+03   -.219E+02 -.204E+02 -.119E+03   0.800E+00 0.263E+01 0.255E+01   0.404E-05 -.352E-06 -.806E-05
   -.841E+01 0.122E+02 0.315E+02   0.710E+01 -.129E+02 -.307E+02   0.628E+00 0.506E+00 -.135E+01   0.824E-05 -.132E-07 0.725E-05
   0.574E+02 -.235E+02 0.859E+02   -.542E+02 0.217E+02 -.843E+02   -.307E+01 0.332E+01 -.248E+01   -.260E-05 0.282E-05 0.105E-04
   -.663E+02 0.144E+02 0.877E+02   0.657E+02 -.132E+02 -.871E+02   0.284E+01 -.190E+01 -.167E+01   0.452E-05 0.409E-06 0.286E-05
   -.152E+02 0.126E+02 -.130E+03   0.177E+02 -.135E+02 0.128E+03   -.287E+01 0.139E+01 0.285E+01   0.787E-05 -.338E-05 -.945E-05
   0.282E+02 -.926E+01 -.845E+02   -.288E+02 0.951E+01 0.852E+02   0.157E+01 -.117E+01 -.276E+00   -.760E-05 -.880E-06 0.413E-05
   -.675E+01 0.165E+02 0.526E+02   0.712E+01 -.134E+02 -.511E+02   -.105E+01 -.258E+01 -.233E+01   -.731E-05 0.401E-05 -.214E-05
 -----------------------------------------------------------------------------------------------
   0.569E+01 0.140E+01 0.449E+01   -.293E-13 0.000E+00 0.000E+00   -.569E+01 -.140E+01 -.449E+01   -.688E-05 -.354E-05 -.175E-04
 
 
 POSITION                                       TOTAL-FORCE (eV/Angst)
 -----------------------------------------------------------------------------------
      7.90384      0.30767      6.87391        -0.803265     -0.626121      1.030650
      5.20359      1.41850      5.58699        -1.462718      0.707242     -0.520600
      7.58468     -0.14931      5.48568         1.390912     -0.216734      0.665969
      3.87662      1.69869      3.40752        -0.847226     -0.512130      1.077139
      3.18661     -0.92257      4.86761        -0.681922     -0.209465     -0.509913
      2.71252      0.40175      2.54995         0.098261      1.558487     -0.796431
      5.62795      1.51836      2.85634         2.280656     -0.710808     -1.086770
      1.25081      0.34889      0.03264        -0.301033      0.436447      0.600737
      3.82427      0.69548      0.35952         1.000949     -0.920439      0.355693
      5.80703     -0.27007      5.03507        -0.674614      0.493521     -0.816475
 -----------------------------------------------------------------------------------
    total drift:                                0.000017     -0.000165     -0.000011


--------------------------------------------------------------------------------------------------------



  FREE ENERGIE OF THE ION-ELECTRON SYSTEM (eV)
  ---------------------------------------------------
  free  energy   TOTEN  =       -65.86771589 eV

  energy  without entropy=      -65.86694457  energy(sigma->0) =      -65.86733023
 


--------------------------------------------------------------------------------------------------------


    POTLOK:  cpu time    0.2880: real time    0.2883


--------------------------------------------------------------------------------------------------------


 writing wavefunctions
     LOOP+:  cpu time  223.9670: real time  224.3835
    4ORBIT:  cpu time    0.0000: real time    0.0000
 


 total charge     
 
# of ion       s       p       d       tot
------------------------------------------
    1        0.860   1.532   0.000   2.392
    2        0.861   1.683   0.000   2.544
    3        0.867   1.695   0.000   2.562
    4        0.865   1.708   0.000   2.573
    5        0.866   1.676   0.000   2.542
    6        0.783   0.826   0.000   1.609
    7        0.797   0.772   0.000   1.569
    8        0.808   0.740   0.000   1.548
    9        0.772   0.810   0.000   1.581
   10        0.737   0.926   0.000   1.662
--------------------------------------------------
tot          8.216  12.365   0.000  20.581
 


 magnetization (x)
 
# of ion       s       p       d       tot
------------------------------------------
    1        0.000  -0.000   0.000  -0.000
    2        0.000   0.000   0.000   0.000
    3        0.000  -0.000   0.000  -0.000
    4        0.000   0.000   0.000   0.000
    5        0.000   0.000   0.000   0.000
    6        0.000   0.000   0.000   0.000
    7        0.000   0.000   0.000   0.000
    8        0.000   0.000   0.000   0.000
    9       -0.000  -0.000   0.000  -0.000
   10       -0.000  -0.000   0.000  -0.000
--------------------------------------------------
tot          0.000   0.000   0.000   0.000
 

 total amount of memory used by VASP MPI-rank0   128314. kBytes
=======================================================================

   base      :      30000. kBytes
   nonl-proj :      59830. kBytes
   fftplans  :       1968. kBytes
   grid      :       6131. kBytes
   one-center:         61. kBytes
   wavefun   :      30324. kBytes
 
  
  
 General timing and accounting informations for this job:
 ========================================================
  
                  Total CPU time used (sec):      229.767
                            User time (sec):      226.077
                          System time (sec):        3.690
                         Elapsed time (sec):      230.210
  
                   Maximum memory used (kb):      168424.
                   Average memory used (kb):           0.
  
                          Minor page faults:        59810
                          Major page faults:            0
                 Voluntary context switches:         1853
