 vasp.5.4.4.18Apr17-6-g9f103f2a35 (build Sep 20 2017 14:02:52) complex          
  
 executed on             LinuxIFC date 2018.08.13  04:27:31
 running on   16 total cores
 distrk:  each k-point on   16 cores,    1 groups
 distr:  one band on NCORES_PER_BAND=   4 cores,    4 groups


--------------------------------------------------------------------------------------------------------


 INCAR:
 POTCAR:    PAW_PBE C 08Apr2002                   
 POTCAR:    PAW_PBE Si 05Jan2001                  
 POTCAR:    PAW_PBE C 08Apr2002                   
   VRHFIN =C: s2p2                                                              
   LEXCH  = PE                                                                  
   EATOM  =   147.1560 eV,   10.8157 Ry                                         
                                                                                
   TITEL  = PAW_PBE C 08Apr2002                                                 
   LULTRA =        F    use ultrasoft PP ?                                      
   IUNSCR =        1    unscreen: 0-lin 1-nonlin 2-no                           
   RPACOR =    1.200    partial core radius                                     
   POMASS =   12.011; ZVAL   =    4.000    mass and valenz                      
   RCORE  =    1.500    outmost cutoff radius                                   
   RWIGS  =    1.630; RWIGS  =    0.863    wigner-seitz radius (au A)           
   ENMAX  =  400.000; ENMIN  =  300.000 eV                                      
   ICORE  =        2    local potential                                         
   LCOR   =        T    correct aug charges                                     
   LPAW   =        T    paw PP                                                  
   EAUG   =  644.873                                                            
   DEXC   =    0.000                                                            
   RMAX   =    1.529    core radius for proj-oper                               
   RAUG   =    1.300    factor for augmentation sphere                          
   RDEP   =    1.501    radius for radial grids                                 
   RDEPT  =    1.300    core radius for aug-charge                              
                                                                                
   Atomic configuration                                                         
    4 entries                                                                   
     n  l   j            E        occ.                                          
     1  0  0.50      -273.3789   2.0000                                         
     2  0  0.50       -13.7508   2.0000                                         
     2  1  0.50        -5.2854   2.0000                                         
     3  2  1.50        -5.4423   0.0000                                         
   Description                                                                  
     l       E           TYP  RCUT    TYP  RCUT                                 
     0    -13.7508458     23  1.200                                             
     0     -8.2022199     23  1.200                                             
     1     -5.2854383     23  1.500                                             
     1     34.0145650     23  1.500                                             
     2     -5.4423304      7  1.500                                             
  local pseudopotential read in
  partial core-charges read in
  partial kinetic energy density read in
  atomic valenz-charges read in
  non local Contribution for L=           0  read in
    real space projection operators read in
  non local Contribution for L=           0  read in
    real space projection operators read in
  non local Contribution for L=           1  read in
    real space projection operators read in
  non local Contribution for L=           1  read in
    real space projection operators read in
    PAW grid and wavefunctions read in
 
   number of l-projection  operators is LMAX  =           4
   number of lm-projection operators is LMMAX =           8
 
 POTCAR:    PAW_PBE Si 05Jan2001                  
   VRHFIN =Si: s2p2                                                             
   LEXCH  = PE                                                                  
   EATOM  =   103.0669 eV,    7.5752 Ry                                         
                                                                                
   TITEL  = PAW_PBE Si 05Jan2001                                                
   LULTRA =        F    use ultrasoft PP ?                                      
   IUNSCR =        1    unscreen: 0-lin 1-nonlin 2-no                           
   RPACOR =    1.500    partial core radius                                     
   POMASS =   28.085; ZVAL   =    4.000    mass and valenz                      
   RCORE  =    1.900    outmost cutoff radius                                   
   RWIGS  =    2.480; RWIGS  =    1.312    wigner-seitz radius (au A)           
   ENMAX  =  245.345; ENMIN  =  184.009 eV                                      
   ICORE  =        2    local potential                                         
   LCOR   =        T    correct aug charges                                     
   LPAW   =        T    paw PP                                                  
   EAUG   =  322.069                                                            
   DEXC   =    0.000                                                            
   RMAX   =    1.950    core radius for proj-oper                               
   RAUG   =    1.300    factor for augmentation sphere                          
   RDEP   =    1.993    radius for radial grids                                 
   RDEPT  =    1.837    core radius for aug-charge                              
                                                                                
   Atomic configuration                                                         
    6 entries                                                                   
     n  l   j            E        occ.                                          
     1  0  0.50     -1785.8828   2.0000                                         
     2  0  0.50      -139.4969   2.0000                                         
     2  1  1.50       -95.5546   6.0000                                         
     3  0  0.50       -10.8127   2.0000                                         
     3  1  0.50        -4.0811   2.0000                                         
     3  2  1.50        -4.0817   0.0000                                         
   Description                                                                  
     l       E           TYP  RCUT    TYP  RCUT                                 
     0    -10.8127223     23  1.900                                             
     0     -7.6451159     23  1.900                                             
     1     -4.0811372     23  1.900                                             
     1      2.4879257     23  1.900                                             
     2     -4.0817478      7  1.900                                             
  local pseudopotential read in
  partial core-charges read in
  partial kinetic energy density read in
  atomic valenz-charges read in
  non local Contribution for L=           0  read in
    real space projection operators read in
  non local Contribution for L=           0  read in
    real space projection operators read in
  non local Contribution for L=           1  read in
    real space projection operators read in
  non local Contribution for L=           1  read in
    real space projection operators read in
    PAW grid and wavefunctions read in
 
   number of l-projection  operators is LMAX  =           4
   number of lm-projection operators is LMMAX =           8
 
  PAW_PBE C 08Apr2002                   :
 energy of atom  1       EATOM= -147.1560
 kinetic energy error for atom=    0.0065 (will be added to EATOM!!)
  PAW_PBE Si 05Jan2001                  :
 energy of atom  2       EATOM= -103.0669
 kinetic energy error for atom=    0.0004 (will be added to EATOM!!)
 
 
 POSCAR:  C Si                                   
  positions in direct lattice
  No initial velocities read in
 exchange correlation table for  LEXCH =        8
   RHO(1)=    0.500       N(1)  =     2000
   RHO(2)=  100.500       N(2)  =     4000
 


--------------------------------------------------------------------------------------------------------


 ion  position               nearest neighbor table
   1  0.881  0.813  0.498-  10 1.66  10 1.95   2 1.98   7 2.29   7 2.46   8 2.52  12 2.59
   2  0.669  0.292  0.763-  10 1.86  12 1.95   1 1.98  10 1.99
   3  0.313  0.704  0.942-  11 1.66  11 2.04   9 2.09   7 2.34
   4  0.994  0.835  0.767-   8 1.91   7 2.24   8 2.25
   5  0.302  0.052  0.503-  11 1.73   9 1.78   9 1.96   8 2.19
   6  0.711  0.876  0.156-  12 1.77  12 1.98  10 2.26
   7  0.072  0.875  0.246-   4 2.24   8 2.29   1 2.29   3 2.34   1 2.46  10 2.67   8 2.72  11 2.94

   8  0.068  0.197  0.881-   4 1.91   5 2.19   4 2.25   7 2.29   1 2.52   7 2.72
   9  0.366  0.089  0.250-   5 1.78   5 1.96   3 2.09  11 2.81  11 2.95  11 3.09
  10  0.785  0.060  0.648-   1 1.66   2 1.86   1 1.95   2 1.99   6 2.26  12 2.44   7 2.67  12 3.06

  11  0.373  0.758  0.700-   3 1.66   5 1.73   3 2.04   9 2.81   7 2.94   9 2.95   9 3.09
  12  0.723  0.993  0.332-   6 1.77   2 1.95   6 1.98  10 2.44   1 2.59  10 3.06
 
  LATTYP: Found a triclinic cell.
 ALAT       =     6.0163068077
 B/A-ratio  =     2.0236949534
 C/A-ratio  =     0.5212561178
 COS(alpha) =     0.0007938345
 COS(beta)  =     0.4941440803
 COS(gamma) =     0.5629819745
  
  Lattice vectors:
  
 A1 = (  -3.2430970275,  -3.1088242790,  -4.0016847547)
 A2 = (   2.0268201120,   0.0736897225, -12.0050542642)
 A3 = (   0.1288760000,  -3.1333875199,   0.0000000000)


Analysis of symmetry for initial positions (statically):
=====================================================================
 Subroutine PRICEL returns:
 Original cell was already a primitive cell.
 

 Routine SETGRP: Setting up the symmetry group for a 
 triclinic supercell.


 Subroutine GETGRP returns: Found  1 space group operations
 (whereof  1 operations were pure point group operations)
 out of a pool of  2 trial point group operations.


The static configuration has the point symmetry C_1 .


Analysis of symmetry for dynamics (positions and initial velocities):
=====================================================================
 Subroutine PRICEL returns:
 Original cell was already a primitive cell.
 

 Routine SETGRP: Setting up the symmetry group for a 
 triclinic supercell.


 Subroutine GETGRP returns: Found  1 space group operations
 (whereof  1 operations were pure point group operations)
 out of a pool of  2 trial point group operations.


The dynamic configuration has the point symmetry C_1 .


Analysis of structural, dynamic, and magnetic symmetry:
=====================================================================
 Subroutine PRICEL returns:
 Original cell was already a primitive cell.
 

 Routine SETGRP: Setting up the symmetry group for a 
 triclinic supercell.


 Subroutine GETGRP returns: Found  1 space group operations
 (whereof  1 operations were pure point group operations)
 out of a pool of  2 trial point group operations.


The magnetic configuration has the point symmetry C_1 .


 Subroutine INISYM returns: Found  1 space group operations
 (whereof  1 operations are pure point group operations),
 and found     1 'primitive' translations

 
 
 KPOINTS: Automatic mesh                          

Automatic generation of k-mesh.
 generate k-points for:    3   18    7
Space group operators:
 irot       det(A)        alpha          n_x          n_y          n_z        tau_x        tau_y        tau_z
    1     1.000000     0.000001     1.000000     0.000000     0.000000     0.000000     0.000000     0.000000
 
 Subroutine IBZKPT returns following result:
 ===========================================
 
 Found    190 irreducible k-points:
 
 Following reciprocal coordinates:
            Coordinates               Weight
  0.000000  0.000000  0.000000      1.000000
  0.333333  0.000000  0.000000      2.000000
  0.000000  0.055556 -0.000000      2.000000
  0.333333  0.055556  0.000000      2.000000
 -0.333333  0.055556  0.000000      2.000000
  0.000000  0.111111 -0.000000      2.000000
  0.333333  0.111111  0.000000      2.000000
 -0.333333  0.111111  0.000000      2.000000
  0.000000  0.166667  0.000000      2.000000
  0.333333  0.166667  0.000000      2.000000
 -0.333333  0.166667 -0.000000      2.000000
  0.000000  0.222222 -0.000000      2.000000
  0.333333  0.222222 -0.000000      2.000000
 -0.333333  0.222222 -0.000000      2.000000
  0.000000  0.277778  0.000000      2.000000
  0.333333  0.277778  0.000000      2.000000
 -0.333333  0.277778  0.000000      2.000000
  0.000000  0.333333  0.000000      2.000000
  0.333333  0.333333  0.000000      2.000000
 -0.333333  0.333333  0.000000      2.000000
  0.000000  0.388889  0.000000      2.000000
  0.333333  0.388889  0.000000      2.000000
 -0.333333  0.388889  0.000000      2.000000
  0.000000  0.444444 -0.000000      2.000000
  0.333333  0.444444 -0.000000      2.000000
 -0.333333  0.444444 -0.000000      2.000000
  0.000000  0.500000  0.000000      1.000000
  0.333333  0.500000  0.000000      2.000000
  0.000000  0.000000  0.142857      2.000000
  0.333333  0.000000  0.142857      2.000000
 -0.333333 -0.000000  0.142857      2.000000
  0.000000  0.055556  0.142857      2.000000
  0.333333  0.055556  0.142857      2.000000
 -0.333333  0.055556  0.142857      2.000000
  0.000000  0.111111  0.142857      2.000000
  0.333333  0.111111  0.142857      2.000000
 -0.333333  0.111111  0.142857      2.000000
  0.000000  0.166667  0.142857      2.000000
  0.333333  0.166667  0.142857      2.000000
 -0.333333  0.166667  0.142857      2.000000
  0.000000  0.222222  0.142857      2.000000
  0.333333  0.222222  0.142857      2.000000
 -0.333333  0.222222  0.142857      2.000000
  0.000000  0.277778  0.142857      2.000000
  0.333333  0.277778  0.142857      2.000000
 -0.333333  0.277778  0.142857      2.000000
  0.000000  0.333333  0.142857      2.000000
  0.333333  0.333333  0.142857      2.000000
 -0.333333  0.333333  0.142857      2.000000
  0.000000  0.388889  0.142857      2.000000
  0.333333  0.388889  0.142857      2.000000
 -0.333333  0.388889  0.142857      2.000000
  0.000000  0.444444  0.142857      2.000000
  0.333333  0.444444  0.142857      2.000000
 -0.333333  0.444444  0.142857      2.000000
  0.000000  0.500000  0.142857      2.000000
  0.333333  0.500000  0.142857      2.000000
 -0.333333  0.500000  0.142857      2.000000
  0.000000 -0.444444  0.142857      2.000000
  0.333333 -0.444444  0.142857      2.000000
 -0.333333 -0.444444  0.142857      2.000000
  0.000000 -0.388889  0.142857      2.000000
  0.333333 -0.388889  0.142857      2.000000
 -0.333333 -0.388889  0.142857      2.000000
  0.000000 -0.333333  0.142857      2.000000
  0.333333 -0.333333  0.142857      2.000000
 -0.333333 -0.333333  0.142857      2.000000
  0.000000 -0.277778  0.142857      2.000000
  0.333333 -0.277778  0.142857      2.000000
 -0.333333 -0.277778  0.142857      2.000000
  0.000000 -0.222222  0.142857      2.000000
  0.333333 -0.222222  0.142857      2.000000
 -0.333333 -0.222222  0.142857      2.000000
  0.000000 -0.166667  0.142857      2.000000
  0.333333 -0.166667  0.142857      2.000000
 -0.333333 -0.166667  0.142857      2.000000
  0.000000 -0.111111  0.142857      2.000000
  0.333333 -0.111111  0.142857      2.000000
 -0.333333 -0.111111  0.142857      2.000000
  0.000000 -0.055556  0.142857      2.000000
  0.333333 -0.055556  0.142857      2.000000
 -0.333333 -0.055556  0.142857      2.000000
  0.000000  0.000000  0.285714      2.000000
  0.333333  0.000000  0.285714      2.000000
 -0.333333 -0.000000  0.285714      2.000000
  0.000000  0.055556  0.285714      2.000000
  0.333333  0.055556  0.285714      2.000000
 -0.333333  0.055556  0.285714      2.000000
  0.000000  0.111111  0.285714      2.000000
  0.333333  0.111111  0.285714      2.000000
 -0.333333  0.111111  0.285714      2.000000
  0.000000  0.166667  0.285714      2.000000
  0.333333  0.166667  0.285714      2.000000
 -0.333333  0.166667  0.285714      2.000000
  0.000000  0.222222  0.285714      2.000000
  0.333333  0.222222  0.285714      2.000000
 -0.333333  0.222222  0.285714      2.000000
  0.000000  0.277778  0.285714      2.000000
  0.333333  0.277778  0.285714      2.000000
 -0.333333  0.277778  0.285714      2.000000
  0.000000  0.333333  0.285714      2.000000
  0.333333  0.333333  0.285714      2.000000
 -0.333333  0.333333  0.285714      2.000000
  0.000000  0.388889  0.285714      2.000000
  0.333333  0.388889  0.285714      2.000000
 -0.333333  0.388889  0.285714      2.000000
  0.000000  0.444444  0.285714      2.000000
  0.333333  0.444444  0.285714      2.000000
 -0.333333  0.444444  0.285714      2.000000
  0.000000  0.500000  0.285714      2.000000
  0.333333  0.500000  0.285714      2.000000
 -0.333333  0.500000  0.285714      2.000000
  0.000000 -0.444444  0.285714      2.000000
  0.333333 -0.444444  0.285714      2.000000
 -0.333333 -0.444444  0.285714      2.000000
  0.000000 -0.388889  0.285714      2.000000
  0.333333 -0.388889  0.285714      2.000000
 -0.333333 -0.388889  0.285714      2.000000
  0.000000 -0.333333  0.285714      2.000000
  0.333333 -0.333333  0.285714      2.000000
 -0.333333 -0.333333  0.285714      2.000000
  0.000000 -0.277778  0.285714      2.000000
  0.333333 -0.277778  0.285714      2.000000
 -0.333333 -0.277778  0.285714      2.000000
  0.000000 -0.222222  0.285714      2.000000
  0.333333 -0.222222  0.285714      2.000000
 -0.333333 -0.222222  0.285714      2.000000
  0.000000 -0.166667  0.285714      2.000000
  0.333333 -0.166667  0.285714      2.000000
 -0.333333 -0.166667  0.285714      2.000000
  0.000000 -0.111111  0.285714      2.000000
  0.333333 -0.111111  0.285714      2.000000
 -0.333333 -0.111111  0.285714      2.000000
  0.000000 -0.055556  0.285714      2.000000
  0.333333 -0.055556  0.285714      2.000000
 -0.333333 -0.055556  0.285714      2.000000
  0.000000  0.000000  0.428571      2.000000
  0.333333  0.000000  0.428571      2.000000
 -0.333333 -0.000000  0.428571      2.000000
  0.000000  0.055556  0.428571      2.000000
  0.333333  0.055556  0.428571      2.000000
 -0.333333  0.055556  0.428571      2.000000
  0.000000  0.111111  0.428571      2.000000
  0.333333  0.111111  0.428571      2.000000
 -0.333333  0.111111  0.428571      2.000000
  0.000000  0.166667  0.428571      2.000000
  0.333333  0.166667  0.428571      2.000000
 -0.333333  0.166667  0.428571      2.000000
  0.000000  0.222222  0.428571      2.000000
  0.333333  0.222222  0.428571      2.000000
 -0.333333  0.222222  0.428571      2.000000
  0.000000  0.277778  0.428571      2.000000
  0.333333  0.277778  0.428571      2.000000
 -0.333333  0.277778  0.428571      2.000000
  0.000000  0.333333  0.428571      2.000000
  0.333333  0.333333  0.428571      2.000000
 -0.333333  0.333333  0.428571      2.000000
  0.000000  0.388889  0.428571      2.000000
  0.333333  0.388889  0.428571      2.000000
 -0.333333  0.388889  0.428571      2.000000
  0.000000  0.444444  0.428571      2.000000
  0.333333  0.444444  0.428571      2.000000
 -0.333333  0.444444  0.428571      2.000000
  0.000000  0.500000  0.428571      2.000000
  0.333333  0.500000  0.428571      2.000000
 -0.333333  0.500000  0.428571      2.000000
  0.000000 -0.444444  0.428571      2.000000
  0.333333 -0.444444  0.428571      2.000000
 -0.333333 -0.444444  0.428571      2.000000
  0.000000 -0.388889  0.428571      2.000000
  0.333333 -0.388889  0.428571      2.000000
 -0.333333 -0.388889  0.428571      2.000000
  0.000000 -0.333333  0.428571      2.000000
  0.333333 -0.333333  0.428571      2.000000
 -0.333333 -0.333333  0.428571      2.000000
  0.000000 -0.277778  0.428571      2.000000
  0.333333 -0.277778  0.428571      2.000000
 -0.333333 -0.277778  0.428571      2.000000
  0.000000 -0.222222  0.428571      2.000000
  0.333333 -0.222222  0.428571      2.000000
 -0.333333 -0.222222  0.428571      2.000000
  0.000000 -0.166667  0.428571      2.000000
  0.333333 -0.166667  0.428571      2.000000
 -0.333333 -0.166667  0.428571      2.000000
  0.000000 -0.111111  0.428571      2.000000
  0.333333 -0.111111  0.428571      2.000000
 -0.333333 -0.111111  0.428571      2.000000
  0.000000 -0.055556  0.428571      2.000000
  0.333333 -0.055556  0.428571      2.000000
 -0.333333 -0.055556  0.428571      2.000000
 
 Following cartesian coordinates:
            Coordinates               Weight
  0.000000  0.000000  0.000000      1.000000
  0.027451  0.001129 -0.023125      2.000000
  0.000000  0.017730 -0.027657      2.000000
  0.027451  0.018859 -0.050782      2.000000
 -0.027451  0.016601 -0.004533      2.000000
  0.000000  0.035460 -0.055315      2.000000
  0.027451  0.036589 -0.078439      2.000000
 -0.027451  0.034331 -0.032190      2.000000
  0.000000  0.053191 -0.082972      2.000000
  0.027451  0.054320 -0.106096      2.000000
 -0.027451  0.052062 -0.059847      2.000000
  0.000000  0.070921 -0.110629      2.000000
  0.027451  0.072050 -0.133754      2.000000
 -0.027451  0.069792 -0.087504      2.000000
  0.000000  0.088651 -0.138286      2.000000
  0.027451  0.089780 -0.161411      2.000000
 -0.027451  0.087522 -0.115162      2.000000
  0.000000  0.106381 -0.165944      2.000000
  0.027451  0.107510 -0.189068      2.000000
 -0.027451  0.105252 -0.142819      2.000000
  0.000000  0.124111 -0.193601      2.000000
  0.027451  0.125240 -0.216725      2.000000
 -0.027451  0.122982 -0.170476      2.000000
  0.000000  0.141842 -0.221258      2.000000
  0.027451  0.142971 -0.244383      2.000000
 -0.027451  0.140712 -0.198133      2.000000
  0.000000  0.159572 -0.248915      1.000000
  0.027451  0.160701 -0.272040      2.000000
  0.000000  0.000000  0.035699      2.000000
  0.027451  0.001129  0.012575      2.000000
 -0.027451 -0.001129  0.058824      2.000000
  0.000000  0.017730  0.008042      2.000000
  0.027451  0.018859 -0.015083      2.000000
 -0.027451  0.016601  0.031167      2.000000
  0.000000  0.035460 -0.019615      2.000000
  0.027451  0.036589 -0.042740      2.000000
 -0.027451  0.034331  0.003509      2.000000
  0.000000  0.053191 -0.047273      2.000000
  0.027451  0.054320 -0.070397      2.000000
 -0.027451  0.052062 -0.024148      2.000000
  0.000000  0.070921 -0.074930      2.000000
  0.027451  0.072050 -0.098054      2.000000
 -0.027451  0.069792 -0.051805      2.000000
  0.000000  0.088651 -0.102587      2.000000
  0.027451  0.089780 -0.125712      2.000000
 -0.027451  0.087522 -0.079462      2.000000
  0.000000  0.106381 -0.130244      2.000000
  0.027451  0.107510 -0.153369      2.000000
 -0.027451  0.105252 -0.107120      2.000000
  0.000000  0.124111 -0.157902      2.000000
  0.027451  0.125240 -0.181026      2.000000
 -0.027451  0.122982 -0.134777      2.000000
  0.000000  0.141842 -0.185559      2.000000
  0.027451  0.142971 -0.208683      2.000000
 -0.027451  0.140712 -0.162434      2.000000
  0.000000  0.159572 -0.213216      2.000000
  0.027451  0.160701 -0.236341      2.000000
 -0.027451  0.158443 -0.190091      2.000000
  0.000000 -0.141842  0.256957      2.000000
  0.027451 -0.140712  0.233833      2.000000
 -0.027451 -0.142971  0.280082      2.000000
  0.000000 -0.124111  0.229300      2.000000
  0.027451 -0.122982  0.206175      2.000000
 -0.027451 -0.125240  0.252425      2.000000
  0.000000 -0.106381  0.201643      2.000000
  0.027451 -0.105252  0.178518      2.000000
 -0.027451 -0.107510  0.224767      2.000000
  0.000000 -0.088651  0.173986      2.000000
  0.027451 -0.087522  0.150861      2.000000
 -0.027451 -0.089780  0.197110      2.000000
  0.000000 -0.070921  0.146328      2.000000
  0.027451 -0.069792  0.123204      2.000000
 -0.027451 -0.072050  0.169453      2.000000
  0.000000 -0.053191  0.118671      2.000000
  0.027451 -0.052062  0.095546      2.000000
 -0.027451 -0.054320  0.141796      2.000000
  0.000000 -0.035460  0.091014      2.000000
  0.027451 -0.034331  0.067889      2.000000
 -0.027451 -0.036589  0.114138      2.000000
  0.000000 -0.017730  0.063357      2.000000
  0.027451 -0.016601  0.040232      2.000000
 -0.027451 -0.018859  0.086481      2.000000
  0.000000  0.000000  0.071398      2.000000
  0.027451  0.001129  0.048274      2.000000
 -0.027451 -0.001129  0.094523      2.000000
  0.000000  0.017730  0.043741      2.000000
  0.027451  0.018859  0.020617      2.000000
 -0.027451  0.016601  0.066866      2.000000
  0.000000  0.035460  0.016084      2.000000
  0.027451  0.036589 -0.007041      2.000000
 -0.027451  0.034331  0.039209      2.000000
  0.000000  0.053191 -0.011573      2.000000
  0.027451  0.054320 -0.034698      2.000000
 -0.027451  0.052062  0.011551      2.000000
  0.000000  0.070921 -0.039231      2.000000
  0.027451  0.072050 -0.062355      2.000000
 -0.027451  0.069792 -0.016106      2.000000
  0.000000  0.088651 -0.066888      2.000000
  0.027451  0.089780 -0.090012      2.000000
 -0.027451  0.087522 -0.043763      2.000000
  0.000000  0.106381 -0.094545      2.000000
  0.027451  0.107510 -0.117670      2.000000
 -0.027451  0.105252 -0.071420      2.000000
  0.000000  0.124111 -0.122202      2.000000
  0.027451  0.125240 -0.145327      2.000000
 -0.027451  0.122982 -0.099078      2.000000
  0.000000  0.141842 -0.149860      2.000000
  0.027451  0.142971 -0.172984      2.000000
 -0.027451  0.140712 -0.126735      2.000000
  0.000000  0.159572 -0.177517      2.000000
  0.027451  0.160701 -0.200641      2.000000
 -0.027451  0.158443 -0.154392      2.000000
  0.000000 -0.141842  0.292657      2.000000
  0.027451 -0.140712  0.269532      2.000000
 -0.027451 -0.142971  0.315781      2.000000
  0.000000 -0.124111  0.264999      2.000000
  0.027451 -0.122982  0.241875      2.000000
 -0.027451 -0.125240  0.288124      2.000000
  0.000000 -0.106381  0.237342      2.000000
  0.027451 -0.105252  0.214217      2.000000
 -0.027451 -0.107510  0.260467      2.000000
  0.000000 -0.088651  0.209685      2.000000
  0.027451 -0.087522  0.186560      2.000000
 -0.027451 -0.089780  0.232809      2.000000
  0.000000 -0.070921  0.182028      2.000000
  0.027451 -0.069792  0.158903      2.000000
 -0.027451 -0.072050  0.205152      2.000000
  0.000000 -0.053191  0.154370      2.000000
  0.027451 -0.052062  0.131246      2.000000
 -0.027451 -0.054320  0.177495      2.000000
  0.000000 -0.035460  0.126713      2.000000
  0.027451 -0.034331  0.103588      2.000000
 -0.027451 -0.036589  0.149838      2.000000
  0.000000 -0.017730  0.099056      2.000000
  0.027451 -0.016601  0.075931      2.000000
 -0.027451 -0.018859  0.122180      2.000000
  0.000000  0.000000  0.107098      2.000000
  0.027451  0.001129  0.083973      2.000000
 -0.027451 -0.001129  0.130222      2.000000
  0.000000  0.017730  0.079440      2.000000
  0.027451  0.018859  0.056316      2.000000
 -0.027451  0.016601  0.102565      2.000000
  0.000000  0.035460  0.051783      2.000000
  0.027451  0.036589  0.028659      2.000000
 -0.027451  0.034331  0.074908      2.000000
  0.000000  0.053191  0.024126      2.000000
  0.027451  0.054320  0.001001      2.000000
 -0.027451  0.052062  0.047251      2.000000
  0.000000  0.070921 -0.003531      2.000000
  0.027451  0.072050 -0.026656      2.000000
 -0.027451  0.069792  0.019593      2.000000
  0.000000  0.088651 -0.031189      2.000000
  0.027451  0.089780 -0.054313      2.000000
 -0.027451  0.087522 -0.008064      2.000000
  0.000000  0.106381 -0.058846      2.000000
  0.027451  0.107510 -0.081970      2.000000
 -0.027451  0.105252 -0.035721      2.000000
  0.000000  0.124111 -0.086503      2.000000
  0.027451  0.125240 -0.109628      2.000000
 -0.027451  0.122982 -0.063378      2.000000
  0.000000  0.141842 -0.114160      2.000000
  0.027451  0.142971 -0.137285      2.000000
 -0.027451  0.140712 -0.091036      2.000000
  0.000000  0.159572 -0.141818      2.000000
  0.027451  0.160701 -0.164942      2.000000
 -0.027451  0.158443 -0.118693      2.000000
  0.000000 -0.141842  0.328356      2.000000
  0.027451 -0.140712  0.305231      2.000000
 -0.027451 -0.142971  0.351480      2.000000
  0.000000 -0.124111  0.300699      2.000000
  0.027451 -0.122982  0.277574      2.000000
 -0.027451 -0.125240  0.323823      2.000000
  0.000000 -0.106381  0.273041      2.000000
  0.027451 -0.105252  0.249917      2.000000
 -0.027451 -0.107510  0.296166      2.000000
  0.000000 -0.088651  0.245384      2.000000
  0.027451 -0.087522  0.222259      2.000000
 -0.027451 -0.089780  0.268509      2.000000
  0.000000 -0.070921  0.217727      2.000000
  0.027451 -0.069792  0.194602      2.000000
 -0.027451 -0.072050  0.240851      2.000000
  0.000000 -0.053191  0.190070      2.000000
  0.027451 -0.052062  0.166945      2.000000
 -0.027451 -0.054320  0.213194      2.000000
  0.000000 -0.035460  0.162412      2.000000
  0.027451 -0.034331  0.139288      2.000000
 -0.027451 -0.036589  0.185537      2.000000
  0.000000 -0.017730  0.134755      2.000000
  0.027451 -0.016601  0.111630      2.000000
 -0.027451 -0.018859  0.157880      2.000000
 


--------------------------------------------------------------------------------------------------------




 Dimension of arrays:
   k-points           NKPTS =    190   k-points in BZ     NKDIM =    190   number of bands    NBANDS=     40
   number of dos      NEDOS =    301   number of ions     NIONS =     12
   non local maximal  LDIM  =      4   non local SUM 2l+1 LMDIM =      8
   total plane-waves  NPLWV = 147456
   max r-space proj   IRMAX =      1   max aug-charges    IRDMAX=  99797
   dimension x,y,z NGX =    96 NGY =   24 NGZ =   64
   dimension x,y,z NGXF=   140 NGYF=   36 NGZF=   90
   support grid    NGXF=   280 NGYF=   72 NGZF=  180
   ions per type =               6   6
   NGX,Y,Z   is equivalent  to a cutoff of  13.14, 12.72, 13.23 a.u.
   NGXF,Y,Z  is equivalent  to a cutoff of  19.17, 19.08, 18.60 a.u.

 SYSTEM =  TEST                                    
 POSCAR =   C Si                                   

 Startparameter for this run:
   NWRITE =      2    write-flag & timer
   PREC   = high      normal or accurate (medium, high low for compatibility)
   ISTART =      1    job   : 0-new  1-cont  2-samecut
   ICHARG =      0    charge: 1-file 2-atom 10-const
   ISPIN  =      2    spin polarized calculation?
   LNONCOLLINEAR =      F non collinear calculations
   LSORBIT =      F    spin-orbit coupling
   INIWAV =      1    electr: 0-lowe 1-rand  2-diag
   LASPH  =      T    aspherical Exc in radial PAW
   METAGGA=      F    non-selfconsistent MetaGGA calc.

 Electronic Relaxation 1
   ENCUT  =  560.0 eV  41.16 Ry    6.42 a.u.  23.43  6.05 15.52*2*pi/ulx,y,z
   ENINI  =  560.0     initial cutoff
   ENAUG  =  644.9 eV  augmentation charge cutoff
   NELM   =    100;   NELMIN=  8; NELMDL=  0     # of ELM steps 
   EDIFF  = 0.1E-06   stopping-criterion for ELM
   LREAL  =      F    real-space projection
   NLSPLINE    = F    spline interpolate recip. space projectors
   LCOMPAT=      F    compatible to vasp.4.4
   GGA_COMPAT  = T    GGA compatible to vasp.4.4-vasp.4.6
   LMAXPAW     = -100 max onsite density
   LMAXMIX     =    4 max onsite mixed and CHGCAR
   VOSKOWN=      0    Vosko Wilk Nusair interpolation
   ROPT   =    0.00000   0.00000
 Ionic relaxation
   EDIFFG = -.1E-02   stopping-criterion for IOM
   NSW    =      1    number of steps for IOM
   NBLOCK =      1;   KBLOCK =      1    inner block; outer block 
   IBRION =      2    ionic relax: 0-MD 1-quasi-New 2-CG
   NFREE  =      1    steps in history (QN), initial steepest desc. (CG)
   ISIF   =      2    stress and relaxation
   IWAVPR =     11    prediction:  0-non 1-charg 2-wave 3-comb
   ISYM   =      2    0-nonsym 1-usesym 2-fastsym
   LCORR  =      T    Harris-Foulkes like correction to forces

   POTIM  = 0.5000    time-step for ionic-motion
   TEIN   =    0.0    initial temperature
   TEBEG  =    0.0;   TEEND  =   0.0 temperature during run
   SMASS  =  -3.00    Nose mass-parameter (am)
   estimated Nose-frequenzy (Omega)   =  0.10E-29 period in steps =****** mass=  -0.337E-26a.u.
   SCALEE = 1.0000    scale energy and forces
   NPACO  =    256;   APACO  = 16.0  distance and # of slots for P.C.
   PSTRESS=    0.0 pullay stress

  Mass of Ions in am
   POMASS =  12.01 28.09
  Ionic Valenz
   ZVAL   =   4.00  4.00
  Atomic Wigner-Seitz radii
   RWIGS  =  -1.00 -1.00
  virtual crystal weights 
   VCA    =   1.00  1.00
   NELECT =      48.0000    total number of electrons
   NUPDOWN=      -1.0000    fix difference up-down

 DOS related values:
   EMIN   =  10.00;   EMAX   =-10.00  energy-range for DOS
   EFERMI =   0.00
   ISMEAR =     0;   SIGMA  =   0.02  broadening in eV -4-tet -1-fermi 0-gaus

 Electronic relaxation 2 (details)
   IALGO  =     38    algorithm
   LDIAG  =      T    sub-space diagonalisation (order eigenvalues)
   LSUBROT=      F    optimize rotation matrix (better conditioning)
   TURBO    =      0    0=normal 1=particle mesh
   IRESTART =      0    0=no restart 2=restart with 2 vectors
   NREBOOT  =      0    no. of reboots
   NMIN     =      0    reboot dimension
   EREF     =   0.00    reference energy to select bands
   IMIX   =      4    mixing-type and parameters
     AMIX     =   0.40;   BMIX     =  1.00
     AMIX_MAG =   1.60;   BMIX_MAG =  1.00
     AMIN     =   0.10
     WC   =   100.;   INIMIX=   1;  MIXPRE=   1;  MAXMIX= -45

 Intra band minimization:
   WEIMIN = 0.0010     energy-eigenvalue tresh-hold
   EBREAK =  0.63E-09  absolut break condition
   DEPER  =   0.30     relativ break condition  

   TIME   =   0.40     timestep for ELM

  volume/ion in A,a.u.               =      12.69        85.62
  Fermi-wavevector in a.u.,A,eV,Ry     =   1.114202  2.105537 16.890907  1.241447
  Thomas-Fermi vector in A             =   2.250795
 
 Write flags
   LWAVE        =      T    write WAVECAR
   LDOWNSAMPLE  =      F    k-point downsampling of WAVECAR
   LCHARG       =      T    write CHGCAR
   LVTOT        =      F    write LOCPOT, total local potential
   LVHAR        =      F    write LOCPOT, Hartree potential only
   LELF         =      F    write electronic localiz. function (ELF)
   LORBIT       =     11    0 simple, 1 ext, 2 COOP (PROOUT), +10 PAW based schemes


 Dipole corrections
   LMONO  =      F    monopole corrections only (constant potential shift)
   LDIPOL =      F    correct potential (dipole corrections)
   IDIPOL =      0    1-x, 2-y, 3-z, 4-all directions 
   EPSILON=  1.0000000 bulk dielectric constant

 Exchange correlation treatment:
   GGA     =    --    GGA type
   LEXCH   =     8    internal setting for exchange type
   VOSKOWN=      0    Vosko Wilk Nusair interpolation
   LHFCALC =     F    Hartree Fock is set to
   LHFONE  =     F    Hartree Fock one center treatment
   AEXX    =    0.0000 exact exchange contribution

 Linear response parameters
   LEPSILON=     F    determine dielectric tensor
   LRPA    =     F    only Hartree local field effects (RPA)
   LNABLA  =     F    use nabla operator in PAW spheres
   LVEL    =     F    velocity operator in full k-point grid
   LINTERFAST=   F  fast interpolation
   KINTER  =     0    interpolate to denser k-point grid
   CSHIFT  =0.1000    complex shift for real part using Kramers Kronig
   OMEGAMAX=  -1.0    maximum frequency
   DEG_THRESHOLD= 0.2000000E-02 threshold for treating states as degnerate
   RTIME   =   -0.100 relaxation time in fs
  (WPLASMAI=    0.000 imaginary part of plasma frequency in eV, 0.658/RTIME)
   DFIELD  = 0.0000000 0.0000000 0.0000000 field for delta impulse in time
 
 Orbital magnetization related:
   ORBITALMAG=     F  switch on orbital magnetization
   LCHIMAG   =     F  perturbation theory with respect to B field
   DQ        =  0.001000  dq finite difference perturbation B field
   LLRAUG    =     F  two centre corrections for induced B field



--------------------------------------------------------------------------------------------------------


 conjugate gradient relaxation of ions
 charge density and potential will be updated during run
 spin polarized calculation
 Variant of blocked Davidson
 Davidson routine will perform the subspace rotation
 perform sub-space diagonalisation
    after iterative eigenvector-optimisation
 modified Broyden-mixing scheme, WC =      100.0
 initial mixing is a Kerker type mixing with AMIX =  0.4000 and BMIX =      1.0000
 Hartree-type preconditioning will be used
 using additional bands           16
 reciprocal scheme for non local part
 use partial core corrections
 calculate Harris-corrections to forces 
   (improved forces if not selfconsistent)
 use gradient corrections 
 use of overlap-Matrix (Vanderbilt PP)
 Gauss-broadening in eV      SIGMA  =   0.02


--------------------------------------------------------------------------------------------------------


  energy-cutoff  :      560.00
  volume of cell :      152.26
      direct lattice vectors                 reciprocal lattice vectors
    12.142739195  0.000000000  0.000000000     0.082353741  0.003387203 -0.069373629
    -0.128876000  3.133387520  0.000000000     0.000000000  0.319143417 -0.497830520
     3.114221028  6.242211799  4.001684755     0.000000000  0.000000000  0.249894747

  length of vectors
    12.142739195  3.136036730  8.042205023     0.107732596  0.591344018  0.249894747


 
 old parameters found on file WAVECAR:
  energy-cutoff  :      560.00
  volume of cell :      152.26
      direct lattice vectors                 reciprocal lattice vectors
    12.142739195  0.000000000  0.000000000     0.082353741  0.003387203 -0.069373629
    -0.128876000  3.133387520  0.000000000     0.000000000  0.319143417 -0.497830520
     3.114221028  6.242211799  4.001684755     0.000000000  0.000000000  0.249894747

  length of vectors

 
 k-points in units of 2pi/SCALE and weight: Automatic mesh                          
   0.00000000  0.00000000  0.00000000       0.003
   0.02745125  0.00112907 -0.02312454       0.005
   0.00000000  0.01773019 -0.02765725       0.005
   0.02745125  0.01885926 -0.05078179       0.005
  -0.02745125  0.01660112 -0.00453271       0.005
   0.00000000  0.03546038 -0.05531450       0.005
   0.02745125  0.03658945 -0.07843905       0.005
  -0.02745125  0.03433131 -0.03218996       0.005
   0.00000000  0.05319057 -0.08297175       0.005
   0.02745125  0.05431964 -0.10609630       0.005
  -0.02745125  0.05206150 -0.05984721       0.005
   0.00000000  0.07092076 -0.11062900       0.005
   0.02745125  0.07204983 -0.13375355       0.005
  -0.02745125  0.06979169 -0.08750446       0.005
   0.00000000  0.08865095 -0.13828626       0.005
   0.02745125  0.08978002 -0.16141080       0.005
  -0.02745125  0.08752188 -0.11516171       0.005
   0.00000000  0.10638114 -0.16594351       0.005
   0.02745125  0.10751021 -0.18906805       0.005
  -0.02745125  0.10525207 -0.14281896       0.005
   0.00000000  0.12411133 -0.19360076       0.005
   0.02745125  0.12524040 -0.21672530       0.005
  -0.02745125  0.12298226 -0.17047621       0.005
   0.00000000  0.14184152 -0.22125801       0.005
   0.02745125  0.14297059 -0.24438255       0.005
  -0.02745125  0.14071245 -0.19813347       0.005
   0.00000000  0.15957171 -0.24891526       0.003
   0.02745125  0.16070078 -0.27203980       0.005
   0.00000000  0.00000000  0.03569925       0.005
   0.02745125  0.00112907  0.01257471       0.005
  -0.02745125 -0.00112907  0.05882379       0.005
   0.00000000  0.01773019  0.00804200       0.005
   0.02745125  0.01885926 -0.01508254       0.005
  -0.02745125  0.01660112  0.03116654       0.005
   0.00000000  0.03546038 -0.01961525       0.005
   0.02745125  0.03658945 -0.04273980       0.005
  -0.02745125  0.03433131  0.00350929       0.005
   0.00000000  0.05319057 -0.04727250       0.005
   0.02745125  0.05431964 -0.07039705       0.005
  -0.02745125  0.05206150 -0.02414796       0.005
   0.00000000  0.07092076 -0.07492975       0.005
   0.02745125  0.07204983 -0.09805430       0.005
  -0.02745125  0.06979169 -0.05180521       0.005
   0.00000000  0.08865095 -0.10258701       0.005
   0.02745125  0.08978002 -0.12571155       0.005
  -0.02745125  0.08752188 -0.07946246       0.005
   0.00000000  0.10638114 -0.13024426       0.005
   0.02745125  0.10751021 -0.15336880       0.005
  -0.02745125  0.10525207 -0.10711971       0.005
   0.00000000  0.12411133 -0.15790151       0.005
   0.02745125  0.12524040 -0.18102605       0.005
  -0.02745125  0.12298226 -0.13477697       0.005
   0.00000000  0.14184152 -0.18555876       0.005
   0.02745125  0.14297059 -0.20868330       0.005
  -0.02745125  0.14071245 -0.16243422       0.005
   0.00000000  0.15957171 -0.21321601       0.005
   0.02745125  0.16070078 -0.23634055       0.005
  -0.02745125  0.15844264 -0.19009147       0.005
   0.00000000 -0.14184152  0.25695726       0.005
   0.02745125 -0.14071245  0.23383272       0.005
  -0.02745125 -0.14297059  0.28008180       0.005
   0.00000000 -0.12411133  0.22930001       0.005
   0.02745125 -0.12298226  0.20617546       0.005
  -0.02745125 -0.12524040  0.25242455       0.005
   0.00000000 -0.10638114  0.20164276       0.005
   0.02745125 -0.10525207  0.17851821       0.005
  -0.02745125 -0.10751021  0.22476730       0.005
   0.00000000 -0.08865095  0.17398551       0.005
   0.02745125 -0.08752188  0.15086096       0.005
  -0.02745125 -0.08978002  0.19711005       0.005
   0.00000000 -0.07092076  0.14632825       0.005
   0.02745125 -0.06979169  0.12320371       0.005
  -0.02745125 -0.07204983  0.16945280       0.005
   0.00000000 -0.05319057  0.11867100       0.005
   0.02745125 -0.05206150  0.09554646       0.005
  -0.02745125 -0.05431964  0.14179555       0.005
   0.00000000 -0.03546038  0.09101375       0.005
   0.02745125 -0.03433131  0.06788921       0.005
  -0.02745125 -0.03658945  0.11413829       0.005
   0.00000000 -0.01773019  0.06335650       0.005
   0.02745125 -0.01660112  0.04023196       0.005
  -0.02745125 -0.01885926  0.08648104       0.005
   0.00000000  0.00000000  0.07139850       0.005
   0.02745125  0.00112907  0.04827396       0.005
  -0.02745125 -0.00112907  0.09452304       0.005
   0.00000000  0.01773019  0.04374125       0.005
   0.02745125  0.01885926  0.02061671       0.005
  -0.02745125  0.01660112  0.06686579       0.005
   0.00000000  0.03546038  0.01608400       0.005
   0.02745125  0.03658945 -0.00704055       0.005
  -0.02745125  0.03433131  0.03920854       0.005
   0.00000000  0.05319057 -0.01157325       0.005
   0.02745125  0.05431964 -0.03469780       0.005
  -0.02745125  0.05206150  0.01155129       0.005
   0.00000000  0.07092076 -0.03923051       0.005
   0.02745125  0.07204983 -0.06235505       0.005
  -0.02745125  0.06979169 -0.01610596       0.005
   0.00000000  0.08865095 -0.06688776       0.005
   0.02745125  0.08978002 -0.09001230       0.005
  -0.02745125  0.08752188 -0.04376321       0.005
   0.00000000  0.10638114 -0.09454501       0.005
   0.02745125  0.10751021 -0.11766955       0.005
  -0.02745125  0.10525207 -0.07142046       0.005
   0.00000000  0.12411133 -0.12220226       0.005
   0.02745125  0.12524040 -0.14532680       0.005
  -0.02745125  0.12298226 -0.09907772       0.005
   0.00000000  0.14184152 -0.14985951       0.005
   0.02745125  0.14297059 -0.17298405       0.005
  -0.02745125  0.14071245 -0.12673497       0.005
   0.00000000  0.15957171 -0.17751676       0.005
   0.02745125  0.16070078 -0.20064130       0.005
  -0.02745125  0.15844264 -0.15439222       0.005
   0.00000000 -0.14184152  0.29265651       0.005
   0.02745125 -0.14071245  0.26953197       0.005
  -0.02745125 -0.14297059  0.31578105       0.005
   0.00000000 -0.12411133  0.26499926       0.005
   0.02745125 -0.12298226  0.24187471       0.005
  -0.02745125 -0.12524040  0.28812380       0.005
   0.00000000 -0.10638114  0.23734201       0.005
   0.02745125 -0.10525207  0.21421746       0.005
  -0.02745125 -0.10751021  0.26046655       0.005
   0.00000000 -0.08865095  0.20968475       0.005
   0.02745125 -0.08752188  0.18656021       0.005
  -0.02745125 -0.08978002  0.23280930       0.005
   0.00000000 -0.07092076  0.18202750       0.005
   0.02745125 -0.06979169  0.15890296       0.005
  -0.02745125 -0.07204983  0.20515205       0.005
   0.00000000 -0.05319057  0.15437025       0.005
   0.02745125 -0.05206150  0.13124571       0.005
  -0.02745125 -0.05431964  0.17749480       0.005
   0.00000000 -0.03546038  0.12671300       0.005
   0.02745125 -0.03433131  0.10358846       0.005
  -0.02745125 -0.03658945  0.14983754       0.005
   0.00000000 -0.01773019  0.09905575       0.005
   0.02745125 -0.01660112  0.07593121       0.005
  -0.02745125 -0.01885926  0.12218029       0.005
   0.00000000  0.00000000  0.10709775       0.005
   0.02745125  0.00112907  0.08397321       0.005
  -0.02745125 -0.00112907  0.13022229       0.005
   0.00000000  0.01773019  0.07944050       0.005
   0.02745125  0.01885926  0.05631595       0.005
  -0.02745125  0.01660112  0.10256504       0.005
   0.00000000  0.03546038  0.05178325       0.005
   0.02745125  0.03658945  0.02865870       0.005
  -0.02745125  0.03433131  0.07490779       0.005
   0.00000000  0.05319057  0.02412600       0.005
   0.02745125  0.05431964  0.00100145       0.005
  -0.02745125  0.05206150  0.04725054       0.005
   0.00000000  0.07092076 -0.00353126       0.005
   0.02745125  0.07204983 -0.02665580       0.005
  -0.02745125  0.06979169  0.01959329       0.005
   0.00000000  0.08865095 -0.03118851       0.005
   0.02745125  0.08978002 -0.05431305       0.005
  -0.02745125  0.08752188 -0.00806396       0.005
   0.00000000  0.10638114 -0.05884576       0.005
   0.02745125  0.10751021 -0.08197030       0.005
  -0.02745125  0.10525207 -0.03572122       0.005
   0.00000000  0.12411133 -0.08650301       0.005
   0.02745125  0.12524040 -0.10962755       0.005
  -0.02745125  0.12298226 -0.06337847       0.005
   0.00000000  0.14184152 -0.11416026       0.005
   0.02745125  0.14297059 -0.13728480       0.005
  -0.02745125  0.14071245 -0.09103572       0.005
   0.00000000  0.15957171 -0.14181751       0.005
   0.02745125  0.16070078 -0.16494205       0.005
  -0.02745125  0.15844264 -0.11869297       0.005
   0.00000000 -0.14184152  0.32835576       0.005
   0.02745125 -0.14071245  0.30523121       0.005
  -0.02745125 -0.14297059  0.35148030       0.005
   0.00000000 -0.12411133  0.30069851       0.005
   0.02745125 -0.12298226  0.27757396       0.005
  -0.02745125 -0.12524040  0.32382305       0.005
   0.00000000 -0.10638114  0.27304126       0.005
   0.02745125 -0.10525207  0.24991671       0.005
  -0.02745125 -0.10751021  0.29616580       0.005
   0.00000000 -0.08865095  0.24538400       0.005
   0.02745125 -0.08752188  0.22225946       0.005
  -0.02745125 -0.08978002  0.26850855       0.005
   0.00000000 -0.07092076  0.21772675       0.005
   0.02745125 -0.06979169  0.19460221       0.005
  -0.02745125 -0.07204983  0.24085130       0.005
   0.00000000 -0.05319057  0.19006950       0.005
   0.02745125 -0.05206150  0.16694496       0.005
  -0.02745125 -0.05431964  0.21319405       0.005
   0.00000000 -0.03546038  0.16241225       0.005
   0.02745125 -0.03433131  0.13928771       0.005
  -0.02745125 -0.03658945  0.18553679       0.005
   0.00000000 -0.01773019  0.13475500       0.005
   0.02745125 -0.01660112  0.11163046       0.005
  -0.02745125 -0.01885926  0.15787954       0.005
 
 k-points in reciprocal lattice and weights: Automatic mesh                          
   0.00000000  0.00000000  0.00000000       0.003
   0.33333333  0.00000000  0.00000000       0.005
   0.00000000  0.05555556 -0.00000000       0.005
   0.33333333  0.05555556  0.00000000       0.005
  -0.33333333  0.05555556  0.00000000       0.005
   0.00000000  0.11111111 -0.00000000       0.005
   0.33333333  0.11111111  0.00000000       0.005
  -0.33333333  0.11111111  0.00000000       0.005
   0.00000000  0.16666667  0.00000000       0.005
   0.33333333  0.16666667  0.00000000       0.005
  -0.33333333  0.16666667 -0.00000000       0.005
   0.00000000  0.22222222 -0.00000000       0.005
   0.33333333  0.22222222 -0.00000000       0.005
  -0.33333333  0.22222222 -0.00000000       0.005
   0.00000000  0.27777778  0.00000000       0.005
   0.33333333  0.27777778  0.00000000       0.005
  -0.33333333  0.27777778  0.00000000       0.005
   0.00000000  0.33333333  0.00000000       0.005
   0.33333333  0.33333333  0.00000000       0.005
  -0.33333333  0.33333333  0.00000000       0.005
   0.00000000  0.38888889  0.00000000       0.005
   0.33333333  0.38888889  0.00000000       0.005
  -0.33333333  0.38888889  0.00000000       0.005
   0.00000000  0.44444444 -0.00000000       0.005
   0.33333333  0.44444444 -0.00000000       0.005
  -0.33333333  0.44444444 -0.00000000       0.005
   0.00000000  0.50000000  0.00000000       0.003
   0.33333333  0.50000000  0.00000000       0.005
   0.00000000  0.00000000  0.14285714       0.005
   0.33333333  0.00000000  0.14285714       0.005
  -0.33333333 -0.00000000  0.14285714       0.005
   0.00000000  0.05555556  0.14285714       0.005
   0.33333333  0.05555556  0.14285714       0.005
  -0.33333333  0.05555556  0.14285714       0.005
   0.00000000  0.11111111  0.14285714       0.005
   0.33333333  0.11111111  0.14285714       0.005
  -0.33333333  0.11111111  0.14285714       0.005
   0.00000000  0.16666667  0.14285714       0.005
   0.33333333  0.16666667  0.14285714       0.005
  -0.33333333  0.16666667  0.14285714       0.005
   0.00000000  0.22222222  0.14285714       0.005
   0.33333333  0.22222222  0.14285714       0.005
  -0.33333333  0.22222222  0.14285714       0.005
   0.00000000  0.27777778  0.14285714       0.005
   0.33333333  0.27777778  0.14285714       0.005
  -0.33333333  0.27777778  0.14285714       0.005
   0.00000000  0.33333333  0.14285714       0.005
   0.33333333  0.33333333  0.14285714       0.005
  -0.33333333  0.33333333  0.14285714       0.005
   0.00000000  0.38888889  0.14285714       0.005
   0.33333333  0.38888889  0.14285714       0.005
  -0.33333333  0.38888889  0.14285714       0.005
   0.00000000  0.44444444  0.14285714       0.005
   0.33333333  0.44444444  0.14285714       0.005
  -0.33333333  0.44444444  0.14285714       0.005
   0.00000000  0.50000000  0.14285714       0.005
   0.33333333  0.50000000  0.14285714       0.005
  -0.33333333  0.50000000  0.14285714       0.005
   0.00000000 -0.44444444  0.14285714       0.005
   0.33333333 -0.44444444  0.14285714       0.005
  -0.33333333 -0.44444444  0.14285714       0.005
   0.00000000 -0.38888889  0.14285714       0.005
   0.33333333 -0.38888889  0.14285714       0.005
  -0.33333333 -0.38888889  0.14285714       0.005
   0.00000000 -0.33333333  0.14285714       0.005
   0.33333333 -0.33333333  0.14285714       0.005
  -0.33333333 -0.33333333  0.14285714       0.005
   0.00000000 -0.27777778  0.14285714       0.005
   0.33333333 -0.27777778  0.14285714       0.005
  -0.33333333 -0.27777778  0.14285714       0.005
   0.00000000 -0.22222222  0.14285714       0.005
   0.33333333 -0.22222222  0.14285714       0.005
  -0.33333333 -0.22222222  0.14285714       0.005
   0.00000000 -0.16666667  0.14285714       0.005
   0.33333333 -0.16666667  0.14285714       0.005
  -0.33333333 -0.16666667  0.14285714       0.005
   0.00000000 -0.11111111  0.14285714       0.005
   0.33333333 -0.11111111  0.14285714       0.005
  -0.33333333 -0.11111111  0.14285714       0.005
   0.00000000 -0.05555556  0.14285714       0.005
   0.33333333 -0.05555556  0.14285714       0.005
  -0.33333333 -0.05555556  0.14285714       0.005
   0.00000000  0.00000000  0.28571429       0.005
   0.33333333  0.00000000  0.28571429       0.005
  -0.33333333 -0.00000000  0.28571429       0.005
   0.00000000  0.05555556  0.28571429       0.005
   0.33333333  0.05555556  0.28571429       0.005
  -0.33333333  0.05555556  0.28571429       0.005
   0.00000000  0.11111111  0.28571429       0.005
   0.33333333  0.11111111  0.28571429       0.005
  -0.33333333  0.11111111  0.28571429       0.005
   0.00000000  0.16666667  0.28571429       0.005
   0.33333333  0.16666667  0.28571429       0.005
  -0.33333333  0.16666667  0.28571429       0.005
   0.00000000  0.22222222  0.28571429       0.005
   0.33333333  0.22222222  0.28571429       0.005
  -0.33333333  0.22222222  0.28571429       0.005
   0.00000000  0.27777778  0.28571429       0.005
   0.33333333  0.27777778  0.28571429       0.005
  -0.33333333  0.27777778  0.28571429       0.005
   0.00000000  0.33333333  0.28571429       0.005
   0.33333333  0.33333333  0.28571429       0.005
  -0.33333333  0.33333333  0.28571429       0.005
   0.00000000  0.38888889  0.28571429       0.005
   0.33333333  0.38888889  0.28571429       0.005
  -0.33333333  0.38888889  0.28571429       0.005
   0.00000000  0.44444444  0.28571429       0.005
   0.33333333  0.44444444  0.28571429       0.005
  -0.33333333  0.44444444  0.28571429       0.005
   0.00000000  0.50000000  0.28571429       0.005
   0.33333333  0.50000000  0.28571429       0.005
  -0.33333333  0.50000000  0.28571429       0.005
   0.00000000 -0.44444444  0.28571429       0.005
   0.33333333 -0.44444444  0.28571429       0.005
  -0.33333333 -0.44444444  0.28571429       0.005
   0.00000000 -0.38888889  0.28571429       0.005
   0.33333333 -0.38888889  0.28571429       0.005
  -0.33333333 -0.38888889  0.28571429       0.005
   0.00000000 -0.33333333  0.28571429       0.005
   0.33333333 -0.33333333  0.28571429       0.005
  -0.33333333 -0.33333333  0.28571429       0.005
   0.00000000 -0.27777778  0.28571429       0.005
   0.33333333 -0.27777778  0.28571429       0.005
  -0.33333333 -0.27777778  0.28571429       0.005
   0.00000000 -0.22222222  0.28571429       0.005
   0.33333333 -0.22222222  0.28571429       0.005
  -0.33333333 -0.22222222  0.28571429       0.005
   0.00000000 -0.16666667  0.28571429       0.005
   0.33333333 -0.16666667  0.28571429       0.005
  -0.33333333 -0.16666667  0.28571429       0.005
   0.00000000 -0.11111111  0.28571429       0.005
   0.33333333 -0.11111111  0.28571429       0.005
  -0.33333333 -0.11111111  0.28571429       0.005
   0.00000000 -0.05555556  0.28571429       0.005
   0.33333333 -0.05555556  0.28571429       0.005
  -0.33333333 -0.05555556  0.28571429       0.005
   0.00000000  0.00000000  0.42857143       0.005
   0.33333333  0.00000000  0.42857143       0.005
  -0.33333333 -0.00000000  0.42857143       0.005
   0.00000000  0.05555556  0.42857143       0.005
   0.33333333  0.05555556  0.42857143       0.005
  -0.33333333  0.05555556  0.42857143       0.005
   0.00000000  0.11111111  0.42857143       0.005
   0.33333333  0.11111111  0.42857143       0.005
  -0.33333333  0.11111111  0.42857143       0.005
   0.00000000  0.16666667  0.42857143       0.005
   0.33333333  0.16666667  0.42857143       0.005
  -0.33333333  0.16666667  0.42857143       0.005
   0.00000000  0.22222222  0.42857143       0.005
   0.33333333  0.22222222  0.42857143       0.005
  -0.33333333  0.22222222  0.42857143       0.005
   0.00000000  0.27777778  0.42857143       0.005
   0.33333333  0.27777778  0.42857143       0.005
  -0.33333333  0.27777778  0.42857143       0.005
   0.00000000  0.33333333  0.42857143       0.005
   0.33333333  0.33333333  0.42857143       0.005
  -0.33333333  0.33333333  0.42857143       0.005
   0.00000000  0.38888889  0.42857143       0.005
   0.33333333  0.38888889  0.42857143       0.005
  -0.33333333  0.38888889  0.42857143       0.005
   0.00000000  0.44444444  0.42857143       0.005
   0.33333333  0.44444444  0.42857143       0.005
  -0.33333333  0.44444444  0.42857143       0.005
   0.00000000  0.50000000  0.42857143       0.005
   0.33333333  0.50000000  0.42857143       0.005
  -0.33333333  0.50000000  0.42857143       0.005
   0.00000000 -0.44444444  0.42857143       0.005
   0.33333333 -0.44444444  0.42857143       0.005
  -0.33333333 -0.44444444  0.42857143       0.005
   0.00000000 -0.38888889  0.42857143       0.005
   0.33333333 -0.38888889  0.42857143       0.005
  -0.33333333 -0.38888889  0.42857143       0.005
   0.00000000 -0.33333333  0.42857143       0.005
   0.33333333 -0.33333333  0.42857143       0.005
  -0.33333333 -0.33333333  0.42857143       0.005
   0.00000000 -0.27777778  0.42857143       0.005
   0.33333333 -0.27777778  0.42857143       0.005
  -0.33333333 -0.27777778  0.42857143       0.005
   0.00000000 -0.22222222  0.42857143       0.005
   0.33333333 -0.22222222  0.42857143       0.005
  -0.33333333 -0.22222222  0.42857143       0.005
   0.00000000 -0.16666667  0.42857143       0.005
   0.33333333 -0.16666667  0.42857143       0.005
  -0.33333333 -0.16666667  0.42857143       0.005
   0.00000000 -0.11111111  0.42857143       0.005
   0.33333333 -0.11111111  0.42857143       0.005
  -0.33333333 -0.11111111  0.42857143       0.005
   0.00000000 -0.05555556  0.42857143       0.005
   0.33333333 -0.05555556  0.42857143       0.005
  -0.33333333 -0.05555556  0.42857143       0.005
 
 position of ions in fractional coordinates (direct lattice) 
   0.88050600  0.81345392  0.49843425
   0.66887389  0.29170524  0.76253600
   0.31267266  0.70355438  0.94213730
   0.99398230  0.83470373  0.76738369
   0.30222914  0.05218046  0.50348963
   0.71095925  0.87580206  0.15560335
   0.07150722  0.87545413  0.24648317
   0.06826395  0.19708183  0.88108348
   0.36559672  0.08931316  0.25036056
   0.78476761  0.05993560  0.64800864
   0.37345046  0.75789409  0.69956612
   0.72307516  0.99303704  0.33188661
 
 position of ions in cartesian coordinates  (Angst):
  12.13915449  5.66019849  1.99457673
  10.45907304  5.67393676  3.05142868
   6.64005506  8.08552907  3.77013646
  14.35189697  7.40562175  3.07082761
   5.23114281  3.30639053  2.01480678
   9.00470610  3.71553634  0.62267556
   1.52307160  4.28173721  0.98634795
   3.54740086  6.11744343  3.52581832
   5.20751339  1.84265641  1.00186405
  11.53954631  4.23280863  2.59312629
   6.61564064  6.74161579  2.79944308
   9.68570274  5.18327634  1.32810557
 


--------------------------------------------------------------------------------------------------------


 k-point  1 :   0.0000 0.0000 0.0000  plane waves:    4549
 k-point  2 :   0.3333 0.0000 0.0000  plane waves:    4545
 k-point  3 :   0.0000 0.0556-0.0000  plane waves:    4565
 k-point  4 :   0.3333 0.0556 0.0000  plane waves:    4552
 k-point  5 :  -0.3333 0.0556 0.0000  plane waves:    4564
 k-point  6 :   0.0000 0.1111-0.0000  plane waves:    4578
 k-point  7 :   0.3333 0.1111 0.0000  plane waves:    4580
 k-point  8 :  -0.3333 0.1111 0.0000  plane waves:    4578
 k-point  9 :   0.0000 0.1667 0.0000  plane waves:    4595
 k-point 10 :   0.3333 0.1667 0.0000  plane waves:    4584
 k-point 11 :  -0.3333 0.1667-0.0000  plane waves:    4592
 k-point 12 :   0.0000 0.2222-0.0000  plane waves:    4595
 k-point 13 :   0.3333 0.2222-0.0000  plane waves:    4583
 k-point 14 :  -0.3333 0.2222-0.0000  plane waves:    4583
 k-point 15 :   0.0000 0.2778 0.0000  plane waves:    4599
 k-point 16 :   0.3333 0.2778 0.0000  plane waves:    4602
 k-point 17 :  -0.3333 0.2778 0.0000  plane waves:    4592
 k-point 18 :   0.0000 0.3333 0.0000  plane waves:    4593
 k-point 19 :   0.3333 0.3333 0.0000  plane waves:    4598
 k-point 20 :  -0.3333 0.3333 0.0000  plane waves:    4586
 k-point 21 :   0.0000 0.3889 0.0000  plane waves:    4603
 k-point 22 :   0.3333 0.3889 0.0000  plane waves:    4599
 k-point 23 :  -0.3333 0.3889 0.0000  plane waves:    4575
 k-point 24 :   0.0000 0.4444-0.0000  plane waves:    4593
 k-point 25 :   0.3333 0.4444-0.0000  plane waves:    4579
 k-point 26 :  -0.3333 0.4444-0.0000  plane waves:    4590
 k-point 27 :   0.0000 0.5000 0.0000  plane waves:    4582
 k-point 28 :   0.3333 0.5000 0.0000  plane waves:    4585
 k-point 29 :   0.0000 0.0000 0.1429  plane waves:    4546
 k-point 30 :   0.3333 0.0000 0.1429  plane waves:    4570
 k-point 31 :  -0.3333-0.0000 0.1429  plane waves:    4555
 k-point 32 :   0.0000 0.0556 0.1429  plane waves:    4562
 k-point 33 :   0.3333 0.0556 0.1429  plane waves:    4550
 k-point 34 :  -0.3333 0.0556 0.1429  plane waves:    4545
 k-point 35 :   0.0000 0.1111 0.1429  plane waves:    4572
 k-point 36 :   0.3333 0.1111 0.1429  plane waves:    4576
 k-point 37 :  -0.3333 0.1111 0.1429  plane waves:    4565
 k-point 38 :   0.0000 0.1667 0.1429  plane waves:    4583
 k-point 39 :   0.3333 0.1667 0.1429  plane waves:    4581
 k-point 40 :  -0.3333 0.1667 0.1429  plane waves:    4589
 k-point 41 :   0.0000 0.2222 0.1429  plane waves:    4593
 k-point 42 :   0.3333 0.2222 0.1429  plane waves:    4592
 k-point 43 :  -0.3333 0.2222 0.1429  plane waves:    4592
 k-point 44 :   0.0000 0.2778 0.1429  plane waves:    4604
 k-point 45 :   0.3333 0.2778 0.1429  plane waves:    4589
 k-point 46 :  -0.3333 0.2778 0.1429  plane waves:    4591
 k-point 47 :   0.0000 0.3333 0.1429  plane waves:    4597
 k-point 48 :   0.3333 0.3333 0.1429  plane waves:    4608
 k-point 49 :  -0.3333 0.3333 0.1429  plane waves:    4586
 k-point 50 :   0.0000 0.3889 0.1429  plane waves:    4592
 k-point 51 :   0.3333 0.3889 0.1429  plane waves:    4595
 k-point 52 :  -0.3333 0.3889 0.1429  plane waves:    4592
 k-point 53 :   0.0000 0.4444 0.1429  plane waves:    4594
 k-point 54 :   0.3333 0.4444 0.1429  plane waves:    4580
 k-point 55 :  -0.3333 0.4444 0.1429  plane waves:    4594
 k-point 56 :   0.0000 0.5000 0.1429  plane waves:    4593
 k-point 57 :   0.3333 0.5000 0.1429  plane waves:    4590
 k-point 58 :  -0.3333 0.5000 0.1429  plane waves:    4596
 k-point 59 :   0.0000-0.4444 0.1429  plane waves:    4596
 k-point 60 :   0.3333-0.4444 0.1429  plane waves:    4598
 k-point 61 :  -0.3333-0.4444 0.1429  plane waves:    4589
 k-point 62 :   0.0000-0.3889 0.1429  plane waves:    4593
 k-point 63 :   0.3333-0.3889 0.1429  plane waves:    4586
 k-point 64 :  -0.3333-0.3889 0.1429  plane waves:    4584
 k-point 65 :   0.0000-0.3333 0.1429  plane waves:    4600
 k-point 66 :   0.3333-0.3333 0.1429  plane waves:    4578
 k-point 67 :  -0.3333-0.3333 0.1429  plane waves:    4595
 k-point 68 :   0.0000-0.2778 0.1429  plane waves:    4585
 k-point 69 :   0.3333-0.2778 0.1429  plane waves:    4581
 k-point 70 :  -0.3333-0.2778 0.1429  plane waves:    4594
 k-point 71 :   0.0000-0.2222 0.1429  plane waves:    4593
 k-point 72 :   0.3333-0.2222 0.1429  plane waves:    4570
 k-point 73 :  -0.3333-0.2222 0.1429  plane waves:    4577
 k-point 74 :   0.0000-0.1667 0.1429  plane waves:    4590
 k-point 75 :   0.3333-0.1667 0.1429  plane waves:    4582
 k-point 76 :  -0.3333-0.1667 0.1429  plane waves:    4580
 k-point 77 :   0.0000-0.1111 0.1429  plane waves:    4581
 k-point 78 :   0.3333-0.1111 0.1429  plane waves:    4587
 k-point 79 :  -0.3333-0.1111 0.1429  plane waves:    4582
 k-point 80 :   0.0000-0.0556 0.1429  plane waves:    4568
 k-point 81 :   0.3333-0.0556 0.1429  plane waves:    4579
 k-point 82 :  -0.3333-0.0556 0.1429  plane waves:    4564
 k-point 83 :   0.0000 0.0000 0.2857  plane waves:    4571
 k-point 84 :   0.3333 0.0000 0.2857  plane waves:    4561
 k-point 85 :  -0.3333-0.0000 0.2857  plane waves:    4566
 k-point 86 :   0.0000 0.0556 0.2857  plane waves:    4544
 k-point 87 :   0.3333 0.0556 0.2857  plane waves:    4561
 k-point 88 :  -0.3333 0.0556 0.2857  plane waves:    4554
 k-point 89 :   0.0000 0.1111 0.2857  plane waves:    4560
 k-point 90 :   0.3333 0.1111 0.2857  plane waves:    4560
 k-point 91 :  -0.3333 0.1111 0.2857  plane waves:    4545
 k-point 92 :   0.0000 0.1667 0.2857  plane waves:    4579
 k-point 93 :   0.3333 0.1667 0.2857  plane waves:    4575
 k-point 94 :  -0.3333 0.1667 0.2857  plane waves:    4582
 k-point 95 :   0.0000 0.2222 0.2857  plane waves:    4581
 k-point 96 :   0.3333 0.2222 0.2857  plane waves:    4585
 k-point 97 :  -0.3333 0.2222 0.2857  plane waves:    4583
 k-point 98 :   0.0000 0.2778 0.2857  plane waves:    4584
 k-point 99 :   0.3333 0.2778 0.2857  plane waves:    4596
 k-point ** :  -0.3333 0.2778 0.2857  plane waves:    4587
 k-point ** :   0.0000 0.3333 0.2857  plane waves:    4601
 k-point ** :   0.3333 0.3333 0.2857  plane waves:    4598
 k-point ** :  -0.3333 0.3333 0.2857  plane waves:    4600
 k-point ** :   0.0000 0.3889 0.2857  plane waves:    4592
 k-point ** :   0.3333 0.3889 0.2857  plane waves:    4604
 k-point ** :  -0.3333 0.3889 0.2857  plane waves:    4600
 k-point ** :   0.0000 0.4444 0.2857  plane waves:    4602
 k-point ** :   0.3333 0.4444 0.2857  plane waves:    4591
 k-point ** :  -0.3333 0.4444 0.2857  plane waves:    4587
 k-point ** :   0.0000 0.5000 0.2857  plane waves:    4596
 k-point ** :   0.3333 0.5000 0.2857  plane waves:    4603
 k-point ** :  -0.3333 0.5000 0.2857  plane waves:    4606
 k-point ** :   0.0000-0.4444 0.2857  plane waves:    4587
 k-point ** :   0.3333-0.4444 0.2857  plane waves:    4604
 k-point ** :  -0.3333-0.4444 0.2857  plane waves:    4602
 k-point ** :   0.0000-0.3889 0.2857  plane waves:    4591
 k-point ** :   0.3333-0.3889 0.2857  plane waves:    4592
 k-point ** :  -0.3333-0.3889 0.2857  plane waves:    4589
 k-point ** :   0.0000-0.3333 0.2857  plane waves:    4594
 k-point ** :   0.3333-0.3333 0.2857  plane waves:    4584
 k-point ** :  -0.3333-0.3333 0.2857  plane waves:    4583
 k-point ** :   0.0000-0.2778 0.2857  plane waves:    4590
 k-point ** :   0.3333-0.2778 0.2857  plane waves:    4579
 k-point ** :  -0.3333-0.2778 0.2857  plane waves:    4584
 k-point ** :   0.0000-0.2222 0.2857  plane waves:    4584
 k-point ** :   0.3333-0.2222 0.2857  plane waves:    4565
 k-point ** :  -0.3333-0.2222 0.2857  plane waves:    4569
 k-point ** :   0.0000-0.1667 0.2857  plane waves:    4575
 k-point ** :   0.3333-0.1667 0.2857  plane waves:    4561
 k-point ** :  -0.3333-0.1667 0.2857  plane waves:    4566
 k-point ** :   0.0000-0.1111 0.2857  plane waves:    4574
 k-point ** :   0.3333-0.1111 0.2857  plane waves:    4573
 k-point ** :  -0.3333-0.1111 0.2857  plane waves:    4576
 k-point ** :   0.0000-0.0556 0.2857  plane waves:    4573
 k-point ** :   0.3333-0.0556 0.2857  plane waves:    4566
 k-point ** :  -0.3333-0.0556 0.2857  plane waves:    4571
 k-point ** :   0.0000 0.0000 0.4286  plane waves:    4555
 k-point ** :   0.3333 0.0000 0.4286  plane waves:    4574
 k-point ** :  -0.3333-0.0000 0.4286  plane waves:    4564
 k-point ** :   0.0000 0.0556 0.4286  plane waves:    4546
 k-point ** :   0.3333 0.0556 0.4286  plane waves:    4554
 k-point ** :  -0.3333 0.0556 0.4286  plane waves:    4554
 k-point ** :   0.0000 0.1111 0.4286  plane waves:    4552
 k-point ** :   0.3333 0.1111 0.4286  plane waves:    4558
 k-point ** :  -0.3333 0.1111 0.4286  plane waves:    4542
 k-point ** :   0.0000 0.1667 0.4286  plane waves:    4566
 k-point ** :   0.3333 0.1667 0.4286  plane waves:    4566
 k-point ** :  -0.3333 0.1667 0.4286  plane waves:    4554
 k-point ** :   0.0000 0.2222 0.4286  plane waves:    4575
 k-point ** :   0.3333 0.2222 0.4286  plane waves:    4579
 k-point ** :  -0.3333 0.2222 0.4286  plane waves:    4577
 k-point ** :   0.0000 0.2778 0.4286  plane waves:    4589
 k-point ** :   0.3333 0.2778 0.4286  plane waves:    4580
 k-point ** :  -0.3333 0.2778 0.4286  plane waves:    4584
 k-point ** :   0.0000 0.3333 0.4286  plane waves:    4582
 k-point ** :   0.3333 0.3333 0.4286  plane waves:    4587
 k-point ** :  -0.3333 0.3333 0.4286  plane waves:    4591
 k-point ** :   0.0000 0.3889 0.4286  plane waves:    4606
 k-point ** :   0.3333 0.3889 0.4286  plane waves:    4604
 k-point ** :  -0.3333 0.3889 0.4286  plane waves:    4598
 k-point ** :   0.0000 0.4444 0.4286  plane waves:    4605
 k-point ** :   0.3333 0.4444 0.4286  plane waves:    4599
 k-point ** :  -0.3333 0.4444 0.4286  plane waves:    4604
 k-point ** :   0.0000 0.5000 0.4286  plane waves:    4602
 k-point ** :   0.3333 0.5000 0.4286  plane waves:    4597
 k-point ** :  -0.3333 0.5000 0.4286  plane waves:    4596
 k-point ** :   0.0000-0.4444 0.4286  plane waves:    4605
 k-point ** :   0.3333-0.4444 0.4286  plane waves:    4608
 k-point ** :  -0.3333-0.4444 0.4286  plane waves:    4607
 k-point ** :   0.0000-0.3889 0.4286  plane waves:    4583
 k-point ** :   0.3333-0.3889 0.4286  plane waves:    4591
 k-point ** :  -0.3333-0.3889 0.4286  plane waves:    4599
 k-point ** :   0.0000-0.3333 0.4286  plane waves:    4585
 k-point ** :   0.3333-0.3333 0.4286  plane waves:    4591
 k-point ** :  -0.3333-0.3333 0.4286  plane waves:    4582
 k-point ** :   0.0000-0.2778 0.4286  plane waves:    4588
 k-point ** :   0.3333-0.2778 0.4286  plane waves:    4586
 k-point ** :  -0.3333-0.2778 0.4286  plane waves:    4577
 k-point ** :   0.0000-0.2222 0.4286  plane waves:    4571
 k-point ** :   0.3333-0.2222 0.4286  plane waves:    4572
 k-point ** :  -0.3333-0.2222 0.4286  plane waves:    4569
 k-point ** :   0.0000-0.1667 0.4286  plane waves:    4567
 k-point ** :   0.3333-0.1667 0.4286  plane waves:    4562
 k-point ** :  -0.3333-0.1667 0.4286  plane waves:    4566
 k-point ** :   0.0000-0.1111 0.4286  plane waves:    4556
 k-point ** :   0.3333-0.1111 0.4286  plane waves:    4559
 k-point ** :  -0.3333-0.1111 0.4286  plane waves:    4560
 k-point ** :   0.0000-0.0556 0.4286  plane waves:    4565
 k-point ** :   0.3333-0.0556 0.4286  plane waves:    4557
 k-point ** :  -0.3333-0.0556 0.4286  plane waves:    4567

 maximum and minimum number of plane-waves per node :      1193     1077

 maximum number of plane-waves:      4608
 maximum index in each direction: 
   IXMAX=   23   IYMAX=    6   IZMAX=   15
   IXMIN=  -23   IYMIN=   -6   IZMIN=  -15


 parallel 3D FFT for wavefunctions:
    minimum data exchange during FFTs selected (reduces bandwidth)
 parallel 3D FFT for charge:
    minimum data exchange during FFTs selected (reduces bandwidth)


 total amount of memory used by VASP MPI-rank0   144431. kBytes
=======================================================================

   base      :      30000. kBytes
   nonl-proj :      29316. kBytes
   fftplans  :       5427. kBytes
   grid      :       5494. kBytes
   one-center:         18. kBytes
   wavefun   :      74176. kBytes
 
     INWAV:  cpu time    3.4895: real time    3.4913
 Broyden mixing: mesh for mixing (old mesh)
   NGX = 47   NGY = 13   NGZ = 31
  (NGX  =140   NGY  = 36   NGZ  = 90)
  gives a total of  18941 points

 charge density for first step will be calculated from the start-wavefunctions


--------------------------------------------------------------------------------------------------------


 Maximum index for augmentation-charges         6389 (set IRDMAX)


--------------------------------------------------------------------------------------------------------


 initial charge from wavefunction
 First call to EWALD:  gamma=   0.332
 Maximum number of real-space cells 2x 8x 4
 Maximum number of reciprocal cells 6x 2x 4

    FEWALD:  cpu time    0.0030: real time    0.0019


--------------------------------------- Iteration      1(   1)  ---------------------------------------


    POTLOK:  cpu time    0.0380: real time    0.0381
    SETDIJ:  cpu time    0.2840: real time    0.2841
     EDDAV:  cpu time   17.2654: real time   17.2951
       DOS:  cpu time    0.0080: real time    0.0080
    CHARGE:  cpu time    1.1308: real time    1.1319
    MIXING:  cpu time    0.0020: real time    0.0013
    --------------------------------------------
      LOOP:  cpu time   18.7282: real time   18.7586

 eigenvalue-minimisations  : 37688
 total energy-change (2. order) :-0.5793593E+02  (-0.1585068E+03)
 number of electron      48.0000000 magnetization       0.0002051
 augmentation part       -1.0995693 magnetization       0.0000019

 Broyden mixing:
  rms(total) = 0.52680E+01    rms(broyden)= 0.52680E+01
  rms(prec ) = 0.58177E+01
  weight for this iteration     100.00

 Free energy of the ion-electron system (eV)
  ---------------------------------------------------
  alpha Z        PSCENC =        54.76515665
  Ewald energy   TEWEN  =     -1498.63590706
  -Hartree energ DENC   =      -290.32912801
  -exchange      EXHF   =         0.00000000
  -V(xc)+E(xc)   XCENC  =        28.00719688
  PAW double counting   =     38967.50468548   -38865.73164385
  entropy T*S    EENTRO =        -0.00068991
  eigenvalues    EBANDS =        45.18813837
  atomic energy  EATOM  =      1501.29626343
  Solvation  Ediel_sol  =         0.00000000
  ---------------------------------------------------
  free energy    TOTEN  =       -57.93592802 eV

  energy without entropy =      -57.93523811  energy(sigma->0) =      -57.93558306


--------------------------------------------------------------------------------------------------------




--------------------------------------- Iteration      1(   2)  ---------------------------------------


    POTLOK:  cpu time    0.0330: real time    0.0340
    SETDIJ:  cpu time    0.2830: real time    0.2821
     EDDAV:  cpu time   17.1464: real time   17.1669
       DOS:  cpu time    0.0090: real time    0.0080
    CHARGE:  cpu time    1.0448: real time    1.0457
    MIXING:  cpu time    0.0010: real time    0.0011
    --------------------------------------------
      LOOP:  cpu time   18.5172: real time   18.5379

 eigenvalue-minimisations  : 37692
 total energy-change (2. order) :-0.1402750E+02  (-0.2098091E+02)
 number of electron      48.0000000 magnetization       0.0001644
 augmentation part       -0.8732741 magnetization       0.0000695

 Broyden mixing:
  rms(total) = 0.49428E+01    rms(broyden)= 0.49428E+01
  rms(prec ) = 0.50372E+01
  weight for this iteration     100.00

 eigenvalues of (default mixing * dielectric matrix)
  average eigenvalue GAMMA=   0.7704
  0.7704

 Free energy of the ion-electron system (eV)
  ---------------------------------------------------
  alpha Z        PSCENC =        54.76515665
  Ewald energy   TEWEN  =     -1498.63590706
  -Hartree energ DENC   =      -266.90599170
  -exchange      EXHF   =         0.00000000
  -V(xc)+E(xc)   XCENC  =        26.61385321
  PAW double counting   =     29188.88251348   -29087.01727035
  entropy T*S    EENTRO =        -0.00049163
  eigenvalues    EBANDS =         9.03844546
  atomic energy  EATOM  =      1501.29626343
  Solvation  Ediel_sol  =         0.00000000
  ---------------------------------------------------
  free energy    TOTEN  =       -71.96342850 eV

  energy without entropy =      -71.96293687  energy(sigma->0) =      -71.96318268


--------------------------------------------------------------------------------------------------------




--------------------------------------- Iteration      1(   3)  ---------------------------------------


    POTLOK:  cpu time    0.0340: real time    0.0340
    SETDIJ:  cpu time    0.2820: real time    0.2818
     EDDAV:  cpu time   17.1264: real time   17.1460
       DOS:  cpu time    0.0080: real time    0.0083
    CHARGE:  cpu time    1.0688: real time    1.0700
    MIXING:  cpu time    0.0020: real time    0.0011
    --------------------------------------------
      LOOP:  cpu time   18.5212: real time   18.5412

 eigenvalue-minimisations  : 37548
 total energy-change (2. order) :-0.4057796E+00  (-0.1837024E+01)
 number of electron      48.0000000 magnetization       0.0001166
 augmentation part       -0.9640562 magnetization      -0.0000078

 Broyden mixing:
  rms(total) = 0.37115E+01    rms(broyden)= 0.37115E+01
  rms(prec ) = 0.37200E+01
  weight for this iteration     100.00

 eigenvalues of (default mixing * dielectric matrix)
  average eigenvalue GAMMA=   1.9446
  0.8923  2.9969

 Free energy of the ion-electron system (eV)
  ---------------------------------------------------
  alpha Z        PSCENC =        54.76515665
  Ewald energy   TEWEN  =     -1498.63590706
  -Hartree energ DENC   =      -272.43827312
  -exchange      EXHF   =         0.00000000
  -V(xc)+E(xc)   XCENC  =        26.93880329
  PAW double counting   =     20397.62142094   -20295.81033848
  entropy T*S    EENTRO =        -0.00082758
  eigenvalues    EBANDS =        13.89449380
  atomic energy  EATOM  =      1501.29626343
  Solvation  Ediel_sol  =         0.00000000
  ---------------------------------------------------
  free energy    TOTEN  =       -72.36920812 eV

  energy without entropy =      -72.36838054  energy(sigma->0) =      -72.36879433


--------------------------------------------------------------------------------------------------------




--------------------------------------- Iteration      1(   4)  ---------------------------------------


    POTLOK:  cpu time    0.0340: real time    0.0341
    SETDIJ:  cpu time    0.2820: real time    0.2816
     EDDAV:  cpu time   17.1564: real time   17.1759
       DOS:  cpu time    0.0080: real time    0.0079
    CHARGE:  cpu time    1.0828: real time    1.0845
    MIXING:  cpu time    0.0020: real time    0.0011
    --------------------------------------------
      LOOP:  cpu time   18.5652: real time   18.5850

 eigenvalue-minimisations  : 37616
 total energy-change (2. order) :-0.9191042E+00  (-0.3509923E+00)
 number of electron      48.0000000 magnetization       0.0000955
 augmentation part       -1.0341960 magnetization       0.0000416

 Broyden mixing:
  rms(total) = 0.95017E+00    rms(broyden)= 0.95016E+00
  rms(prec ) = 0.13165E+01
  weight for this iteration     100.00

 eigenvalues of (default mixing * dielectric matrix)
  average eigenvalue GAMMA=   1.4275
  2.6117  0.9263  0.7445

 Free energy of the ion-electron system (eV)
  ---------------------------------------------------
  alpha Z        PSCENC =        54.76515665
  Ewald energy   TEWEN  =     -1498.63590706
  -Hartree energ DENC   =      -283.09174195
  -exchange      EXHF   =         0.00000000
  -V(xc)+E(xc)   XCENC  =        27.58148678
  PAW double counting   =      3154.61575471    -3053.30007354
  entropy T*S    EENTRO =        -0.00082219
  eigenvalues    EBANDS =        23.48157080
  atomic energy  EATOM  =      1501.29626343
  Solvation  Ediel_sol  =         0.00000000
  ---------------------------------------------------
  free energy    TOTEN  =       -73.28831237 eV

  energy without entropy =      -73.28749018  energy(sigma->0) =      -73.28790127


--------------------------------------------------------------------------------------------------------




--------------------------------------- Iteration      1(   5)  ---------------------------------------


    POTLOK:  cpu time    0.0340: real time    0.0340
    SETDIJ:  cpu time    0.2810: real time    0.2815
     EDDAV:  cpu time   17.8043: real time   17.8238
       DOS:  cpu time    0.0080: real time    0.0082
    CHARGE:  cpu time    1.0708: real time    1.0709
    MIXING:  cpu time    0.0010: real time    0.0012
    --------------------------------------------
      LOOP:  cpu time   19.1991: real time   19.2196

 eigenvalue-minimisations  : 39604
 total energy-change (2. order) : 0.8345832E+00  (-0.2310421E+00)
 number of electron      48.0000000 magnetization       0.0000959
 augmentation part       -0.9987772 magnetization       0.0000072

 Broyden mixing:
  rms(total) = 0.37932E+00    rms(broyden)= 0.37931E+00
  rms(prec ) = 0.46432E+00
  weight for this iteration     100.00

 eigenvalues of (default mixing * dielectric matrix)
  average eigenvalue GAMMA=   1.2155
  2.5400  0.9559  0.6832  0.6832

 Free energy of the ion-electron system (eV)
  ---------------------------------------------------
  alpha Z        PSCENC =        54.76515665
  Ewald energy   TEWEN  =     -1498.63590706
  -Hartree energ DENC   =      -277.56048085
  -exchange      EXHF   =         0.00000000
[...]
     17       3.7252      1.00000
     18       4.2814      1.00000
     19       4.4660      1.00000
     20       4.6139      1.00000
     21       5.2373      1.00000
     22       5.5073      1.00000
     23       6.1174      1.00000
     24       6.2476      1.00000
     25       6.9759      0.00000
     26       7.9906      0.00000
     27       8.2650      0.00000
     28       8.9260      0.00000
     29       9.4920      0.00000
     30       9.8776      0.00000
     31      10.5900      0.00000
     32      10.7920      0.00000
     33      11.2912      0.00000
     34      11.4990      0.00000
     35      11.6934      0.00000
     36      11.9302      0.00000
     37      12.3285      0.00000
     38      12.8254      0.00000
     39      13.0751      0.00000
     40      13.5914      0.00000

 k-point   187 :      -0.3333   -0.1111    0.4286
  band No.  band energies     occupation 
      1      -9.2009      1.00000
      2      -8.0435      1.00000
      3      -6.2624      1.00000
      4      -5.9778      1.00000
      5      -5.4420      1.00000
      6      -4.1343      1.00000
      7      -2.0716      1.00000
      8       0.2579      1.00000
      9       0.4879      1.00000
     10       0.6649      1.00000
     11       1.1376      1.00000
     12       1.4798      1.00000
     13       1.9191      1.00000
     14       2.4918      1.00000
     15       2.8020      1.00000
     16       3.3136      1.00000
     17       3.6626      1.00000
     18       4.2382      1.00000
     19       4.5579      1.00000
     20       4.6458      1.00000
     21       5.2798      1.00000
     22       5.5236      1.00000
     23       6.0636      1.00000
     24       6.3583      1.00000
     25       7.3893      0.00000
     26       7.7832      0.00000
     27       8.2753      0.00000
     28       8.6915      0.00000
     29       9.2209      0.00000
     30       9.8905      0.00000
     31      10.5493      0.00000
     32      11.0330      0.00000
     33      11.3185      0.00000
     34      11.5109      0.00000
     35      11.7275      0.00000
     36      12.0301      0.00000
     37      12.2475      0.00000
     38      12.7698      0.00000
     39      13.1059      0.00000
     40      13.5842      0.00000

 k-point   188 :       0.0000   -0.0556    0.4286
  band No.  band energies     occupation 
      1      -9.2599      1.00000
      2      -8.0211      1.00000
      3      -6.6735      1.00000
      4      -6.1266      1.00000
      5      -5.3461      1.00000
      6      -4.5526      1.00000
      7      -2.1159      1.00000
      8       0.1172      1.00000
      9       0.9139      1.00000
     10       1.3224      1.00000
     11       1.5331      1.00000
     12       1.8795      1.00000
     13       2.0951      1.00000
     14       2.6378      1.00000
     15       3.0898      1.00000
     16       3.2708      1.00000
     17       3.9574      1.00000
     18       4.2616      1.00000
     19       4.3640      1.00000
     20       4.5315      1.00000
     21       5.3502      1.00000
     22       5.6721      1.00000
     23       5.8728      1.00000
     24       6.1870      1.00000
     25       7.0366      0.00000
     26       8.0463      0.00000
     27       8.1470      0.00000
     28       8.9996      0.00000
     29       9.4928      0.00000
     30       9.8906      0.00000
     31      10.4544      0.00000
     32      10.5927      0.00000
     33      10.7729      0.00000
     34      11.1243      0.00000
     35      11.3608      0.00000
     36      11.9228      0.00000
     37      12.6086      0.00000
     38      12.8503      0.00000
     39      13.5851      0.00000
     40      13.9726      0.00000

 k-point   189 :       0.3333   -0.0556    0.4286
  band No.  band energies     occupation 
      1      -9.2600      1.00000
      2      -8.0249      1.00000
      3      -6.6284      1.00000
      4      -6.1717      1.00000
      5      -5.3657      1.00000
      6      -4.5319      1.00000
      7      -2.1155      1.00000
      8       0.3308      1.00000
      9       0.8179      1.00000
     10       1.1593      1.00000
     11       1.4773      1.00000
     12       1.7993      1.00000
     13       2.0908      1.00000
     14       2.8553      1.00000
     15       3.1390      1.00000
     16       3.3523      1.00000
     17       3.6212      1.00000
     18       4.2559      1.00000
     19       4.3181      1.00000
     20       4.5748      1.00000
     21       5.4488      1.00000
     22       5.6462      1.00000
     23       5.9980      1.00000
     24       6.6078      0.00000
     25       7.0513      0.00000
     26       7.6588      0.00000
     27       8.1162      0.00000
     28       8.9182      0.00000
     29       9.2827      0.00000
     30       9.7322      0.00000
     31      10.5326      0.00000
     32      10.7942      0.00000
     33      10.9202      0.00000
     34      11.1583      0.00000
     35      11.2984      0.00000
     36      11.9170      0.00000
     37      12.5218      0.00000
     38      13.0864      0.00000
     39      13.5486      0.00000
     40      14.0379      0.00000

 k-point   190 :      -0.3333   -0.0556    0.4286
  band No.  band energies     occupation 
      1      -9.2578      1.00000
      2      -8.0352      1.00000
      3      -6.6083      1.00000
      4      -6.1946      1.00000
      5      -5.3094      1.00000
      6      -4.5812      1.00000
      7      -2.1598      1.00000
      8       0.5188      1.00000
      9       0.8553      1.00000
     10       1.1236      1.00000
     11       1.4215      1.00000
     12       1.7997      1.00000
     13       2.0214      1.00000
     14       2.9564      1.00000
     15       3.0649      1.00000
     16       3.2805      1.00000
     17       3.5034      1.00000
     18       4.2510      1.00000
     19       4.3685      1.00000
     20       4.5780      1.00000
     21       5.5748      1.00000
     22       5.6676      1.00000
     23       5.9163      1.00000
     24       6.4324      1.00000
     25       7.4635      0.00000
     26       7.6441      0.00000
     27       8.1317      0.00000
     28       8.7997      0.00000
     29       9.1688      0.00000
     30       9.7775      0.00000
     31      10.4001      0.00000
     32      10.8214      0.00000
     33      10.8930      0.00000
     34      11.1921      0.00000
     35      11.3308      0.00000
     36      11.9260      0.00000
     37      12.7796      0.00000
     38      12.9909      0.00000
     39      13.4856      0.00000
     40      13.8436      0.00000


--------------------------------------------------------------------------------------------------------


 soft charge-density along one line, spin component           1
         0         1         2         3         4         5         6         7         8         9
 total charge-density along one line
 
 soft charge-density along one line, spin component           2
         0         1         2         3         4         5         6         7         8         9
 total charge-density along one line
 
 pseudopotential strength for first ion, spin component:           1
  9.624  12.785  -0.001  -0.004  -0.009   0.008   0.005   0.026
 12.785  16.982  -0.001  -0.005  -0.012   0.011   0.007   0.034
 -0.001  -0.001  -3.841   0.003  -0.003   7.522  -0.005   0.005
 -0.004  -0.005   0.003  -3.830   0.004  -0.005   7.504  -0.007
 -0.009  -0.012  -0.003   0.004  -3.831   0.005  -0.007   7.508
  0.008   0.011   7.522  -0.005   0.005 -16.833   0.008  -0.008
  0.005   0.007  -0.005   7.504  -0.007   0.008 -16.808   0.014
  0.026   0.034   0.005  -0.007   7.508  -0.008   0.014 -16.816
 pseudopotential strength for first ion, spin component:           2
  9.624  12.785  -0.001  -0.004  -0.009   0.008   0.005   0.026
 12.785  16.982  -0.001  -0.005  -0.012   0.011   0.007   0.034
 -0.001  -0.001  -3.841   0.003  -0.003   7.522  -0.005   0.005
 -0.004  -0.005   0.003  -3.830   0.004  -0.005   7.504  -0.007
 -0.009  -0.012  -0.003   0.004  -3.831   0.005  -0.007   7.508
  0.008   0.011   7.522  -0.005   0.005 -16.833   0.008  -0.008
  0.005   0.007  -0.005   7.504  -0.007   0.008 -16.808   0.014
  0.026   0.034   0.005  -0.007   7.508  -0.008   0.014 -16.816
 total augmentation occupancy for first ion, spin component:           1
  5.401  -2.038  -0.293   0.193  -0.281  -0.038   0.027  -0.044
 -2.038   0.944   0.173  -0.083   0.234   0.018  -0.013   0.027
 -0.293   0.173   1.565  -0.070   0.052   0.110  -0.005   0.002
  0.193  -0.083  -0.070   1.185   0.062  -0.005   0.068  -0.010
 -0.281   0.234   0.052   0.062   1.095   0.002  -0.011   0.072
 -0.038   0.018   0.110  -0.005   0.002   0.009  -0.000   0.000
  0.027  -0.013  -0.005   0.068  -0.011  -0.000   0.005  -0.002
 -0.044   0.027   0.002  -0.010   0.072   0.000  -0.002   0.006
 total augmentation occupancy for first ion, spin component:           2
  0.000  -0.000   0.000   0.000   0.000   0.000   0.000   0.000
 -0.000   0.000  -0.000  -0.000  -0.000  -0.000  -0.000  -0.000
  0.000  -0.000  -0.000  -0.000   0.000   0.000   0.000   0.000
  0.000  -0.000  -0.000  -0.000  -0.000   0.000   0.000  -0.000
  0.000  -0.000   0.000  -0.000   0.000   0.000  -0.000   0.000
  0.000  -0.000   0.000   0.000   0.000   0.000   0.000   0.000
  0.000  -0.000   0.000   0.000  -0.000   0.000   0.000  -0.000
  0.000  -0.000   0.000  -0.000   0.000   0.000  -0.000   0.000


------------------------ aborting loop because EDIFF is reached ----------------------------------------


 


 total charge     
 
# of ion       s       p       d       tot
------------------------------------------
    1        0.923   1.498   0.000   2.421
    2        0.922   1.407   0.000   2.329
    3        0.875   1.560   0.000   2.435
    4        0.915   1.286   0.000   2.201
    5        0.873   1.659   0.000   2.532
    6        0.899   1.415   0.000   2.314
    7        0.813   0.688   0.000   1.502
    8        0.745   0.802   0.000   1.546
    9        0.747   0.836   0.000   1.583
   10        0.687   0.976   0.000   1.662
   11        0.766   0.988   0.000   1.754
   12        0.747   0.885   0.000   1.633
--------------------------------------------------
tot          9.914  13.999   0.000  23.912
 


 magnetization (x)
 
# of ion       s       p       d       tot
------------------------------------------
    1       -0.000   0.000   0.000   0.000
    2       -0.000   0.000   0.000   0.000
    3       -0.000   0.000   0.000   0.000
    4        0.000   0.000   0.000   0.000
    5        0.000   0.000   0.000   0.000
    6       -0.000   0.000   0.000   0.000
    7        0.000   0.000   0.000   0.000
    8       -0.000   0.000   0.000   0.000
    9        0.000   0.000   0.000   0.000
   10        0.000   0.000   0.000   0.000
   11        0.000   0.000   0.000   0.000
   12       -0.000   0.000   0.000   0.000
--------------------------------------------------
tot          0.000   0.000   0.000   0.000
 
    CHARGE:  cpu time    1.0398: real time    1.0416
    FORLOC:  cpu time    0.0040: real time    0.0034
    FORNL :  cpu time    3.4785: real time    3.4802
    STRESS:  cpu time    4.8213: real time    4.8239
    FORCOR:  cpu time    0.0360: real time    0.0365
    FORHAR:  cpu time    0.0050: real time    0.0054
    MIXING:  cpu time    0.0020: real time    0.0020
    OFIELD:  cpu time    0.0000: real time    0.0000

  FORCE on cell =-STRESS in cart. coord.  units (eV):
  Direction    XX          YY          ZZ          XY          YZ          ZX
  --------------------------------------------------------------------------------------
  Alpha Z    54.76516    54.76516    54.76516
  Ewald    -628.84034  -267.63642  -602.16234     8.45729    44.47147   162.69009
  Hartree    43.74830   171.82506    61.03715    -1.10479     8.20095    80.97839
  E(xc)    -163.62154  -164.33317  -163.65562    -0.09170    -0.41434    -0.38941
  Local     -19.79210  -514.82223   -72.68850    -5.41076   -50.61153  -254.88615
  n-local   212.22115   233.14118   212.93905     3.65842     7.35275     8.22732
  augment   -34.90469   -36.21562   -35.07359    -0.20940    -0.51826    -0.75122
  Kinetic   533.36780   527.28792   537.61410    -4.53084    -0.04589     8.06197
  Fock        0.00000     0.00000     0.00000     0.00000     0.00000     0.00000
  -------------------------------------------------------------------------------------
  Total      -3.05625     4.01188    -7.22458     0.76822     8.43515     3.93099
  in kB     -32.16077    42.21680   -76.02384     8.08394    88.76253    41.36560
  external pressure =      -21.99 kB  Pullay stress =        0.00 kB


 VOLUME and BASIS-vectors are now :
 -----------------------------------------------------------------------------
  energy-cutoff  :      560.00
  volume of cell :      152.26
      direct lattice vectors                 reciprocal lattice vectors
    12.142739195  0.000000000  0.000000000     0.082353741  0.003387203 -0.069373629
    -0.128876000  3.133387520  0.000000000     0.000000000  0.319143417 -0.497830520
     3.114221028  6.242211799  4.001684755     0.000000000  0.000000000  0.249894747

  length of vectors
    12.142739195  3.136036730  8.042205023     0.107732596  0.591344018  0.249894747


 FORCES acting on ions
    electron-ion (+dipol)            ewald-force                    non-local-force                 convergence-correction
 -----------------------------------------------------------------------------------------------
   -.434E+02 -.162E+02 0.273E+02   0.506E+02 0.210E+02 -.285E+02   -.555E+01 -.555E+00 -.222E+01   0.581E-03 -.226E-05 -.854E-03
   0.897E+02 -.620E+01 -.839E+02   -.940E+02 0.863E+01 0.911E+02   0.252E+01 -.259E+01 -.843E+01   -.868E-04 0.656E-04 -.550E-03
   -.278E+02 -.216E+02 -.167E+02   0.265E+02 0.265E+02 0.199E+02   0.365E+01 -.236E+00 0.439E+00   -.459E-03 -.873E-04 0.951E-04
   -.555E+00 -.769E+01 0.167E+02   -.234E+01 0.937E+01 -.158E+02   0.448E+01 -.257E+00 -.194E+01   0.509E-03 0.429E-04 -.400E-04
   0.108E+02 -.373E+01 0.263E+02   -.142E+02 0.414E+01 -.247E+02   0.109E+01 0.121E+01 -.334E+01   -.413E-03 -.499E-04 0.687E-03
   0.513E+02 0.130E+02 -.317E+02   -.551E+02 -.154E+02 0.278E+02   0.422E+01 0.792E+00 0.340E+01   0.538E-03 0.289E-04 0.249E-03
   -.411E+02 -.365E+01 0.969E+01   0.401E+02 0.198E+01 -.133E+02   0.324E+01 0.297E+01 0.637E+01   -.246E-03 -.923E-05 -.482E-03
   -.152E+02 0.182E+02 0.154E+02   0.120E+02 -.145E+02 -.162E+02   0.115E+01 -.516E+01 -.890E+00   0.671E-03 -.256E-04 0.331E-03
   -.281E+02 0.116E+02 0.574E+02   0.258E+02 -.890E+01 -.540E+02   0.439E-01 -.416E+01 -.545E+01   -.357E-03 -.328E-04 0.226E-03
   0.200E+02 0.313E+02 -.314E+02   -.196E+02 -.249E+02 0.326E+02   -.750E+00 -.131E+02 0.491E+01   0.405E-03 0.337E-04 -.667E-03
   -.806E+02 0.193E+02 0.399E+02   0.734E+02 -.143E+02 -.352E+02   0.949E+01 -.102E+02 -.481E+01   -.207E-03 0.252E-04 0.369E-03
   0.384E+02 -.101E+02 -.161E+02   -.432E+02 0.643E+01 0.163E+02   0.310E+01 0.707E+01 -.946E+00   0.205E-03 0.652E-05 -.141E-03
 -----------------------------------------------------------------------------------------------
   -.267E+02 0.242E+02 0.129E+02   0.355E-13 0.711E-14 0.000E+00   0.267E+02 -.242E+02 -.129E+02   0.114E-02 -.425E-05 -.776E-03
 
 
 POSITION                                       TOTAL-FORCE (eV/Angst)
 -----------------------------------------------------------------------------------
     12.13915      5.66020      1.99458         1.666186      4.189848     -3.346029
     10.45907      5.67394      3.05143        -1.831514     -0.167353     -1.201835
      6.64006      8.08553      3.77014         2.287262      4.612574      3.612778
     14.35190      7.40562      3.07083         1.583494      1.418646     -1.023820
      5.23114      3.30639      2.01481        -2.330024      1.617691     -1.776109
      9.00471      3.71554      0.62268         0.444194     -1.566382     -0.547694
      1.52307      4.28174      0.98635         2.254798      1.304083      2.719543
      3.54740      6.11744      3.52582        -2.032579     -1.410556     -1.772078
      5.20751      1.84266      1.00186        -2.263122     -1.498341     -1.982887
     11.53955      4.23281      2.59313        -0.403216     -6.685957      6.148761
      6.61564      6.74162      2.79944         2.271265     -5.250153     -0.153438
      9.68570      5.18328      1.32811        -1.646744      3.435900     -0.677190
 -----------------------------------------------------------------------------------
    total drift:                               -0.000183     -0.000183     -0.000047


--------------------------------------------------------------------------------------------------------



  FREE ENERGIE OF THE ION-ELECTRON SYSTEM (eV)
  ---------------------------------------------------
  free  energy   TOTEN  =       -72.38932269 eV

  energy  without entropy=      -72.38851070  energy(sigma->0) =      -72.38891670
 


--------------------------------------------------------------------------------------------------------


    POTLOK:  cpu time    0.3110: real time    0.3104


--------------------------------------------------------------------------------------------------------




--------------------------------------------------------------------------------------------------------


 writing wavefunctions
     LOOP+:  cpu time  249.5481: real time  249.8553
    4ORBIT:  cpu time    0.0000: real time    0.0000
 


 total charge     
 
# of ion       s       p       d       tot
------------------------------------------
    1        0.923   1.498   0.000   2.421
    2        0.922   1.407   0.000   2.329
    3        0.875   1.560   0.000   2.435
    4        0.915   1.286   0.000   2.201
    5        0.873   1.659   0.000   2.532
    6        0.899   1.415   0.000   2.314
    7        0.813   0.688   0.000   1.502
    8        0.745   0.802   0.000   1.546
    9        0.747   0.836   0.000   1.583
   10        0.687   0.976   0.000   1.662
   11        0.766   0.988   0.000   1.754
   12        0.747   0.885   0.000   1.633
--------------------------------------------------
tot          9.914  13.999   0.000  23.912
 


 magnetization (x)
 
# of ion       s       p       d       tot
------------------------------------------
    1       -0.000   0.000   0.000   0.000
    2       -0.000   0.000   0.000   0.000
    3       -0.000   0.000   0.000   0.000
    4        0.000   0.000   0.000   0.000
    5        0.000   0.000   0.000   0.000
    6       -0.000   0.000   0.000   0.000
    7        0.000   0.000   0.000   0.000
    8       -0.000   0.000   0.000   0.000
    9        0.000   0.000   0.000   0.000
   10        0.000   0.000   0.000   0.000
   11        0.000   0.000   0.000   0.000
   12       -0.000   0.000   0.000   0.000
--------------------------------------------------
tot          0.000   0.000   0.000   0.000
 

 total amount of memory used by VASP MPI-rank0   144431. kBytes
=======================================================================

   base      :      30000. kBytes
   nonl-proj :      29316. kBytes
   fftplans  :       5427. kBytes
   grid      :       5494. kBytes
   one-center:         18. kBytes
   wavefun   :      74176. kBytes
 
  
  
 General timing and accounting informations for this job:
 ========================================================
  
                  Total CPU time used (sec):      260.169
                            User time (sec):      255.661
                          System time (sec):        4.508
                         Elapsed time (sec):      260.492
  
                   Maximum memory used (kb):      193596.
                   Average memory used (kb):           0.
  
                          Minor page faults:        63006
                          Major page faults:            0
                 Voluntary context switches:         3146
