 vasp.5.4.4.18Apr17-6-g9f103f2a35 (build Sep 20 2017 14:02:52) complex          
  
 executed on             LinuxIFC date 2018.08.09  16:56:56
 running on   16 total cores
 distrk:  each k-point on   16 cores,    1 groups
 distr:  one band on NCORES_PER_BAND=   1 cores,   16 groups


--------------------------------------------------------------------------------------------------------


 INCAR:
 POTCAR:    PAW_PBE C 08Apr2002                   
 POTCAR:    PAW_PBE Si 05Jan2001                  

 ----------------------------------------------------------------------------- 
|                                                                             |
|           W    W    AA    RRRRR   N    N  II  N    N   GGGG   !!!           |
|           W    W   A  A   R    R  NN   N  II  NN   N  G    G  !!!           |
|           W    W  A    A  R    R  N N  N  II  N N  N  G       !!!           |
|           W WW W  AAAAAA  RRRRR   N  N N  II  N  N N  G  GGG   !            |
|           WW  WW  A    A  R   R   N   NN  II  N   NN  G    G                |
|           W    W  A    A  R    R  N    N  II  N    N   GGGG   !!!           |
|                                                                             |
|      For optimal performance we recommend to set                            |
|        NCORE= 4 - approx SQRT( number of cores)                             |
|      NCORE specifies how many cores store one orbital (NPAR=cpu/NCORE).     |
|      This setting can  greatly improve the performance of VASP for DFT.     |
|      The default,   NCORE=1            might be grossly inefficient         |
|      on modern multi-core architectures or massively parallel machines.     |
|      Do your own testing !!!!                                               |
|      Unfortunately you need to use the default for GW and RPA calculations. |
|      (for HF NCORE is supported but not extensively tested yet)             |
|                                                                             |
 ----------------------------------------------------------------------------- 

 POTCAR:    PAW_PBE C 08Apr2002                   
   VRHFIN =C: s2p2                                                              
   LEXCH  = PE                                                                  
   EATOM  =   147.1560 eV,   10.8157 Ry                                         
                                                                                
   TITEL  = PAW_PBE C 08Apr2002                                                 
   LULTRA =        F    use ultrasoft PP ?                                      
   IUNSCR =        1    unscreen: 0-lin 1-nonlin 2-no                           
   RPACOR =    1.200    partial core radius                                     
   POMASS =   12.011; ZVAL   =    4.000    mass and valenz                      
   RCORE  =    1.500    outmost cutoff radius                                   
   RWIGS  =    1.630; RWIGS  =    0.863    wigner-seitz radius (au A)           
   ENMAX  =  400.000; ENMIN  =  300.000 eV                                      
   ICORE  =        2    local potential                                         
   LCOR   =        T    correct aug charges                                     
   LPAW   =        T    paw PP                                                  
   EAUG   =  644.873                                                            
   DEXC   =    0.000                                                            
   RMAX   =    1.529    core radius for proj-oper                               
   RAUG   =    1.300    factor for augmentation sphere                          
   RDEP   =    1.501    radius for radial grids                                 
   RDEPT  =    1.300    core radius for aug-charge                              
                                                                                
   Atomic configuration                                                         
    4 entries                                                                   
     n  l   j            E        occ.                                          
     1  0  0.50      -273.3789   2.0000                                         
     2  0  0.50       -13.7508   2.0000                                         
     2  1  0.50        -5.2854   2.0000                                         
     3  2  1.50        -5.4423   0.0000                                         
   Description                                                                  
     l       E           TYP  RCUT    TYP  RCUT                                 
     0    -13.7508458     23  1.200                                             
     0     -8.2022199     23  1.200                                             
     1     -5.2854383     23  1.500                                             
     1     34.0145650     23  1.500                                             
     2     -5.4423304      7  1.500                                             
  local pseudopotential read in
  partial core-charges read in
  partial kinetic energy density read in
  atomic valenz-charges read in
  non local Contribution for L=           0  read in
    real space projection operators read in
  non local Contribution for L=           0  read in
    real space projection operators read in
  non local Contribution for L=           1  read in
    real space projection operators read in
  non local Contribution for L=           1  read in
    real space projection operators read in
    PAW grid and wavefunctions read in
 
   number of l-projection  operators is LMAX  =           4
   number of lm-projection operators is LMMAX =           8
 
 POTCAR:    PAW_PBE Si 05Jan2001                  
   VRHFIN =Si: s2p2                                                             
   LEXCH  = PE                                                                  
   EATOM  =   103.0669 eV,    7.5752 Ry                                         
                                                                                
   TITEL  = PAW_PBE Si 05Jan2001                                                
   LULTRA =        F    use ultrasoft PP ?                                      
   IUNSCR =        1    unscreen: 0-lin 1-nonlin 2-no                           
   RPACOR =    1.500    partial core radius                                     
   POMASS =   28.085; ZVAL   =    4.000    mass and valenz                      
   RCORE  =    1.900    outmost cutoff radius                                   
   RWIGS  =    2.480; RWIGS  =    1.312    wigner-seitz radius (au A)           
   ENMAX  =  245.345; ENMIN  =  184.009 eV                                      
   ICORE  =        2    local potential                                         
   LCOR   =        T    correct aug charges                                     
   LPAW   =        T    paw PP                                                  
   EAUG   =  322.069                                                            
   DEXC   =    0.000                                                            
   RMAX   =    1.950    core radius for proj-oper                               
   RAUG   =    1.300    factor for augmentation sphere                          
   RDEP   =    1.993    radius for radial grids                                 
   RDEPT  =    1.837    core radius for aug-charge                              
                                                                                
   Atomic configuration                                                         
    6 entries                                                                   
     n  l   j            E        occ.                                          
     1  0  0.50     -1785.8828   2.0000                                         
     2  0  0.50      -139.4969   2.0000                                         
     2  1  1.50       -95.5546   6.0000                                         
     3  0  0.50       -10.8127   2.0000                                         
     3  1  0.50        -4.0811   2.0000                                         
     3  2  1.50        -4.0817   0.0000                                         
   Description                                                                  
     l       E           TYP  RCUT    TYP  RCUT                                 
     0    -10.8127223     23  1.900                                             
     0     -7.6451159     23  1.900                                             
     1     -4.0811372     23  1.900                                             
     1      2.4879257     23  1.900                                             
     2     -4.0817478      7  1.900                                             
  local pseudopotential read in
  partial core-charges read in
  partial kinetic energy density read in
  atomic valenz-charges read in
  non local Contribution for L=           0  read in
    real space projection operators read in
  non local Contribution for L=           0  read in
    real space projection operators read in
  non local Contribution for L=           1  read in
    real space projection operators read in
  non local Contribution for L=           1  read in
    real space projection operators read in
    PAW grid and wavefunctions read in
 
   number of l-projection  operators is LMAX  =           4
   number of lm-projection operators is LMMAX =           8
 
  PAW_PBE C 08Apr2002                   :
 energy of atom  1       EATOM= -147.1560
 kinetic energy error for atom=    0.0065 (will be added to EATOM!!)
  PAW_PBE Si 05Jan2001                  :
 energy of atom  2       EATOM= -103.0669
 kinetic energy error for atom=    0.0004 (will be added to EATOM!!)
 
 
 POSCAR:  C Si                                   
  positions in direct lattice
  No initial velocities read in
 exchange correlation table for  LEXCH =        8
   RHO(1)=    0.500       N(1)  =     2000
   RHO(2)=  100.500       N(2)  =     4000
 


--------------------------------------------------------------------------------------------------------


 ion  position               nearest neighbor table
   1  0.794  0.389  0.957-   3 1.50   9 1.89   9 1.90   8 1.98
   2  0.196  0.280  0.746-   5 1.48  10 1.89  10 1.91   8 2.00
   3  0.720  0.478  0.761-   5 1.38   1 1.50  10 1.87
   4  0.879  0.488  0.460-   5 1.49   6 1.88   6 1.90   7 1.98
   5  0.922  0.428  0.657-   3 1.38   2 1.48   4 1.49
   6  0.692  0.060  0.371-   4 1.88   4 1.90   9 2.32   7 2.46   7 2.94
   7  0.212  0.405  0.354-   4 1.98   6 2.46  10 2.52   8 2.59   6 2.94
   8  0.183  0.260  0.010-   1 1.98   2 2.00   9 2.40   7 2.59   9 3.08  10 3.15
   9  0.655  0.975  0.061-   1 1.89   1 1.90   6 2.32   8 2.40   8 3.08
  10  0.365  0.678  0.663-   3 1.87   2 1.89   2 1.91   7 2.52   8 3.15
 
  LATTYP: Found a triclinic cell.
 ALAT       =    12.5000450682
 B/A-ratio  =     0.5509357241
 C/A-ratio  =     1.2529436398
 COS(alpha) =     0.0113980695
 COS(beta)  =     0.6629528443
 COS(gamma) =     0.7511445245
  
  Lattice vectors:
  
 A1 = (  -7.9087052470,   6.1800583770,  -7.4505292751)
 A2 = (  -3.5778023410,   5.8844083639,   0.0000000000)
 A3 = (  -4.2101437859,  -2.3509041557, -14.9010585503)


Analysis of symmetry for initial positions (statically):
=====================================================================
 Subroutine PRICEL returns:
 Original cell was already a primitive cell.
 

 Routine SETGRP: Setting up the symmetry group for a 
 triclinic supercell.


 Subroutine GETGRP returns: Found  1 space group operations
 (whereof  1 operations were pure point group operations)
 out of a pool of  2 trial point group operations.


The static configuration has the point symmetry C_1 .


Analysis of symmetry for dynamics (positions and initial velocities):
=====================================================================
 Subroutine PRICEL returns:
 Original cell was already a primitive cell.
 

 Routine SETGRP: Setting up the symmetry group for a 
 triclinic supercell.


 Subroutine GETGRP returns: Found  1 space group operations
 (whereof  1 operations were pure point group operations)
 out of a pool of  2 trial point group operations.


The dynamic configuration has the point symmetry C_1 .


Analysis of structural, dynamic, and magnetic symmetry:
=====================================================================
 Subroutine PRICEL returns:
 Original cell was already a primitive cell.
 

 Routine SETGRP: Setting up the symmetry group for a 
 triclinic supercell.


 Subroutine GETGRP returns: Found  1 space group operations
 (whereof  1 operations were pure point group operations)
 out of a pool of  2 trial point group operations.


The magnetic configuration has the point symmetry C_1 .


 Subroutine INISYM returns: Found  1 space group operations
 (whereof  1 operations are pure point group operations),
 and found     1 'primitive' translations

 
 
 KPOINTS: Automatic mesh                          

Automatic generation of k-mesh.
 generate k-points for:    4    7    3
Space group operators:
 irot       det(A)        alpha          n_x          n_y          n_z        tau_x        tau_y        tau_z
    1     1.000000     0.000001     1.000000     0.000000     0.000000     0.000000     0.000000     0.000000
 
 Subroutine IBZKPT returns following result:
 ===========================================
 
 Found     43 irreducible k-points:
 
 Following reciprocal coordinates:
            Coordinates               Weight
  0.000000  0.000000  0.000000      1.000000
  0.250000 -0.000000  0.000000      2.000000
  0.500000 -0.000000  0.000000      1.000000
  0.000000  0.142857  0.000000      2.000000
  0.250000  0.142857  0.000000      2.000000
  0.500000  0.142857  0.000000      2.000000
 -0.250000  0.142857 -0.000000      2.000000
  0.000000  0.285714  0.000000      2.000000
  0.250000  0.285714  0.000000      2.000000
  0.500000  0.285714  0.000000      2.000000
 -0.250000  0.285714 -0.000000      2.000000
  0.000000  0.428571 -0.000000      2.000000
  0.250000  0.428571  0.000000      2.000000
  0.500000  0.428571  0.000000      2.000000
 -0.250000  0.428571 -0.000000      2.000000
  0.000000  0.000000  0.333333      2.000000
  0.250000 -0.000000  0.333333      2.000000
  0.500000 -0.000000  0.333333      2.000000
 -0.250000  0.000000  0.333333      2.000000
  0.000000  0.142857  0.333333      2.000000
  0.250000  0.142857  0.333333      2.000000
  0.500000  0.142857  0.333333      2.000000
 -0.250000  0.142857  0.333333      2.000000
  0.000000  0.285714  0.333333      2.000000
  0.250000  0.285714  0.333333      2.000000
  0.500000  0.285714  0.333333      2.000000
 -0.250000  0.285714  0.333333      2.000000
  0.000000  0.428571  0.333333      2.000000
  0.250000  0.428571  0.333333      2.000000
  0.500000  0.428571  0.333333      2.000000
 -0.250000  0.428571  0.333333      2.000000
  0.000000 -0.428571  0.333333      2.000000
  0.250000 -0.428571  0.333333      2.000000
  0.500000 -0.428571  0.333333      2.000000
 -0.250000 -0.428571  0.333333      2.000000
  0.000000 -0.285714  0.333333      2.000000
  0.250000 -0.285714  0.333333      2.000000
  0.500000 -0.285714  0.333333      2.000000
 -0.250000 -0.285714  0.333333      2.000000
  0.000000 -0.142857  0.333333      2.000000
  0.250000 -0.142857  0.333333      2.000000
  0.500000 -0.142857  0.333333      2.000000
 -0.250000 -0.142857  0.333333      2.000000
 
 Following cartesian coordinates:
            Coordinates               Weight
  0.000000  0.000000  0.000000      1.000000
  0.046944 -0.013943  0.005714      2.000000
  0.093888 -0.027885  0.011427      1.000000
  0.000000  0.048554  0.001927      2.000000
  0.046944  0.034612  0.007640      2.000000
  0.093888  0.020669  0.013354      2.000000
 -0.046944  0.062497 -0.003787      2.000000
  0.000000  0.097109  0.003853      2.000000
  0.046944  0.083166  0.009567      2.000000
  0.093888  0.069224  0.015281      2.000000
 -0.046944  0.111052 -0.001860      2.000000
  0.000000  0.145663  0.005780      2.000000
  0.046944  0.131721  0.011494      2.000000
  0.093888  0.117778  0.017207      2.000000
 -0.046944  0.159606  0.000067      2.000000
  0.000000  0.000000  0.044740      2.000000
  0.046944 -0.013943  0.050453      2.000000
  0.093888 -0.027885  0.056167      2.000000
 -0.046944  0.013943  0.039026      2.000000
  0.000000  0.048554  0.046666      2.000000
  0.046944  0.034612  0.052380      2.000000
  0.093888  0.020669  0.058093      2.000000
 -0.046944  0.062497  0.040953      2.000000
  0.000000  0.097109  0.048593      2.000000
  0.046944  0.083166  0.054307      2.000000
  0.093888  0.069224  0.060020      2.000000
 -0.046944  0.111052  0.042879      2.000000
  0.000000  0.145663  0.050520      2.000000
  0.046944  0.131721  0.056233      2.000000
  0.093888  0.117778  0.061947      2.000000
 -0.046944  0.159606  0.044806      2.000000
  0.000000 -0.145663  0.038959      2.000000
  0.046944 -0.159606  0.044673      2.000000
  0.093888 -0.173549  0.050386      2.000000
 -0.046944 -0.131721  0.033246      2.000000
  0.000000 -0.097109  0.040886      2.000000
  0.046944 -0.111052  0.046600      2.000000
  0.093888 -0.124994  0.052313      2.000000
 -0.046944 -0.083166  0.035173      2.000000
  0.000000 -0.048554  0.042813      2.000000
  0.046944 -0.062497  0.048526      2.000000
  0.093888 -0.076440  0.054240      2.000000
 -0.046944 -0.034612  0.037099      2.000000
 


--------------------------------------------------------------------------------------------------------




 Dimension of arrays:
   k-points           NKPTS =     43   k-points in BZ     NKDIM =     43   number of bands    NBANDS=     32
   number of dos      NEDOS =    301   number of ions     NIONS =     10
   non local maximal  LDIM  =      4   non local SUM 2l+1 LMDIM =      8
   total plane-waves  NPLWV =  60480
   max r-space proj   IRMAX =      1   max aug-charges    IRDMAX=  52158
   dimension x,y,z NGX =    42 NGY =   24 NGZ =   60
   dimension x,y,z NGXF=    60 NGYF=   36 NGZF=   84
   support grid    NGXF=   120 NGYF=   72 NGZF=  168
   ions per type =               5   5
   NGX,Y,Z   is equivalent  to a cutoff of  13.11, 13.00, 13.26 a.u.
   NGXF,Y,Z  is equivalent  to a cutoff of  18.73, 19.50, 18.56 a.u.

 SYSTEM =  TEST                                    
 POSCAR =   C Si                                   

 Startparameter for this run:
   NWRITE =      2    write-flag & timer
   PREC   = high      normal or accurate (medium, high low for compatibility)
   ISTART =      0    job   : 0-new  1-cont  2-samecut
   ICHARG =      2    charge: 1-file 2-atom 10-const
   ISPIN  =      2    spin polarized calculation?
   LNONCOLLINEAR =      F non collinear calculations
   LSORBIT =      F    spin-orbit coupling
   INIWAV =      1    electr: 0-lowe 1-rand  2-diag
   LASPH  =      T    aspherical Exc in radial PAW
   METAGGA=      F    non-selfconsistent MetaGGA calc.

 Electronic Relaxation 1
   ENCUT  =  560.0 eV  41.16 Ry    6.42 a.u.  10.28  5.92 14.51*2*pi/ulx,y,z
   ENINI  =  560.0     initial cutoff
   ENAUG  =  644.9 eV  augmentation charge cutoff
   NELM   =    100;   NELMIN=  8; NELMDL= -5     # of ELM steps 
   EDIFF  = 0.1E-07   stopping-criterion for ELM
   LREAL  =      F    real-space projection
   NLSPLINE    = F    spline interpolate recip. space projectors
   LCOMPAT=      F    compatible to vasp.4.4
   GGA_COMPAT  = T    GGA compatible to vasp.4.4-vasp.4.6
   LMAXPAW     = -100 max onsite density
   LMAXMIX     =    4 max onsite mixed and CHGCAR
   VOSKOWN=      0    Vosko Wilk Nusair interpolation
   ROPT   =    0.00000   0.00000
 Ionic relaxation
   EDIFFG = -.1E-04   stopping-criterion for IOM
   NSW    =      0    number of steps for IOM
   NBLOCK =      1;   KBLOCK =      1    inner block; outer block 
   IBRION =     -1    ionic relax: 0-MD 1-quasi-New 2-CG
   NFREE  =      0    steps in history (QN), initial steepest desc. (CG)
   ISIF   =      2    stress and relaxation
   IWAVPR =     10    prediction:  0-non 1-charg 2-wave 3-comb
   ISYM   =      2    0-nonsym 1-usesym 2-fastsym
   LCORR  =      T    Harris-Foulkes like correction to forces

   POTIM  = 0.5000    time-step for ionic-motion
   TEIN   =    0.0    initial temperature
   TEBEG  =    0.0;   TEEND  =   0.0 temperature during run
   SMASS  =  -3.00    Nose mass-parameter (am)
   estimated Nose-frequenzy (Omega)   =  0.10E-29 period in steps =****** mass=  -0.648E-27a.u.
   SCALEE = 1.0000    scale energy and forces
   NPACO  =    256;   APACO  = 16.0  distance and # of slots for P.C.
   PSTRESS=    0.0 pullay stress

  Mass of Ions in am
   POMASS =  12.01 28.09
  Ionic Valenz
   ZVAL   =   4.00  4.00
  Atomic Wigner-Seitz radii
   RWIGS  =  -1.00 -1.00
  virtual crystal weights 
   VCA    =   1.00  1.00
   NELECT =      40.0000    total number of electrons
   NUPDOWN=      -1.0000    fix difference up-down

 DOS related values:
   EMIN   =  10.00;   EMAX   =-10.00  energy-range for DOS
   EFERMI =   0.00
   ISMEAR =     0;   SIGMA  =   0.02  broadening in eV -4-tet -1-fermi 0-gaus

 Electronic relaxation 2 (details)
   IALGO  =     38    algorithm
   LDIAG  =      T    sub-space diagonalisation (order eigenvalues)
   LSUBROT=      F    optimize rotation matrix (better conditioning)
   TURBO    =      0    0=normal 1=particle mesh
   IRESTART =      0    0=no restart 2=restart with 2 vectors
   NREBOOT  =      0    no. of reboots
   NMIN     =      0    reboot dimension
   EREF     =   0.00    reference energy to select bands
   IMIX   =      4    mixing-type and parameters
     AMIX     =   0.40;   BMIX     =  1.00
     AMIX_MAG =   1.60;   BMIX_MAG =  1.00
     AMIN     =   0.10
     WC   =   100.;   INIMIX=   1;  MIXPRE=   1;  MAXMIX= -45

 Intra band minimization:
   WEIMIN = 0.0000     energy-eigenvalue tresh-hold
   EBREAK =  0.78E-10  absolut break condition
   DEPER  =   0.30     relativ break condition  

   TIME   =   0.40     timestep for ELM

  volume/ion in A,a.u.               =      11.67        78.78
  Fermi-wavevector in a.u.,A,eV,Ry     =   1.145568  2.164809 17.855273  1.312326
  Thomas-Fermi vector in A             =   2.282256
 
 Write flags
   LWAVE        =      T    write WAVECAR
   LDOWNSAMPLE  =      F    k-point downsampling of WAVECAR
   LCHARG       =      T    write CHGCAR
   LVTOT        =      F    write LOCPOT, total local potential
   LVHAR        =      F    write LOCPOT, Hartree potential only
   LELF         =      F    write electronic localiz. function (ELF)
   LORBIT       =     11    0 simple, 1 ext, 2 COOP (PROOUT), +10 PAW based schemes


 Dipole corrections
   LMONO  =      F    monopole corrections only (constant potential shift)
   LDIPOL =      F    correct potential (dipole corrections)
   IDIPOL =      0    1-x, 2-y, 3-z, 4-all directions 
   EPSILON=  1.0000000 bulk dielectric constant

 Exchange correlation treatment:
   GGA     =    --    GGA type
   LEXCH   =     8    internal setting for exchange type
   VOSKOWN=      0    Vosko Wilk Nusair interpolation
   LHFCALC =     F    Hartree Fock is set to
   LHFONE  =     F    Hartree Fock one center treatment
   AEXX    =    0.0000 exact exchange contribution

 Linear response parameters
   LEPSILON=     F    determine dielectric tensor
   LRPA    =     F    only Hartree local field effects (RPA)
   LNABLA  =     F    use nabla operator in PAW spheres
   LVEL    =     F    velocity operator in full k-point grid
   LINTERFAST=   F  fast interpolation
   KINTER  =     0    interpolate to denser k-point grid
   CSHIFT  =0.1000    complex shift for real part using Kramers Kronig
   OMEGAMAX=  -1.0    maximum frequency
   DEG_THRESHOLD= 0.2000000E-02 threshold for treating states as degnerate
   RTIME   =   -0.100 relaxation time in fs
  (WPLASMAI=    0.000 imaginary part of plasma frequency in eV, 0.658/RTIME)
   DFIELD  = 0.0000000 0.0000000 0.0000000 field for delta impulse in time
 
 Orbital magnetization related:
   ORBITALMAG=     F  switch on orbital magnetization
   LCHIMAG   =     F  perturbation theory with respect to B field
   DQ        =  0.001000  dq finite difference perturbation B field
   LLRAUG    =     F  two centre corrections for induced B field



--------------------------------------------------------------------------------------------------------


 Static calculation
 charge density and potential will be updated during run
 spin polarized calculation
 Variant of blocked Davidson
 Davidson routine will perform the subspace rotation
 perform sub-space diagonalisation
    after iterative eigenvector-optimisation
 modified Broyden-mixing scheme, WC =      100.0
 initial mixing is a Kerker type mixing with AMIX =  0.4000 and BMIX =      1.0000
 Hartree-type preconditioning will be used
 using additional bands           12
 reciprocal scheme for non local part
 use partial core corrections
 calculate Harris-corrections to forces 
   (improved forces if not selfconsistent)
 use gradient corrections 
 use of overlap-Matrix (Vanderbilt PP)
 Gauss-broadening in eV      SIGMA  =   0.02


--------------------------------------------------------------------------------------------------------


  energy-cutoff  :      560.00
  volume of cell :      116.74
      direct lattice vectors                 reciprocal lattice vectors
     5.325521711  0.000000000  0.000000000     0.187775030 -0.055770782  0.022854208
     0.873859685  2.942204182  0.000000000     0.000000000  0.339881238  0.013487081
    -0.994618805 -0.295650013  7.450529275     0.000000000  0.000000000  0.134218653

  length of vectors
     5.325521711  3.069233813  7.522437237     0.197210945  0.340148728  0.134218653


 
 k-points in units of 2pi/SCALE and weight: Automatic mesh                          
   0.00000000  0.00000000  0.00000000       0.012
   0.04694376 -0.01394270  0.00571355       0.024
   0.09388752 -0.02788539  0.01142710       0.012
   0.00000000  0.04855446  0.00192673       0.024
   0.04694376  0.03461177  0.00764028       0.024
   0.09388752  0.02066907  0.01335383       0.024
  -0.04694376  0.06249716 -0.00378683       0.024
   0.00000000  0.09710893  0.00385345       0.024
   0.04694376  0.08316623  0.00956700       0.024
   0.09388752  0.06922353  0.01528056       0.024
  -0.04694376  0.11105162 -0.00186010       0.024
   0.00000000  0.14566339  0.00578018       0.024
   0.04694376  0.13172069  0.01149373       0.024
   0.09388752  0.11777800  0.01720728       0.024
  -0.04694376  0.15960608  0.00006663       0.024
   0.00000000  0.00000000  0.04473955       0.024
   0.04694376 -0.01394270  0.05045310       0.024
   0.09388752 -0.02788539  0.05616665       0.024
  -0.04694376  0.01394270  0.03902600       0.024
   0.00000000  0.04855446  0.04666628       0.024
   0.04694376  0.03461177  0.05237983       0.024
   0.09388752  0.02066907  0.05809338       0.024
  -0.04694376  0.06249716  0.04095272       0.024
   0.00000000  0.09710893  0.04859300       0.024
   0.04694376  0.08316623  0.05430655       0.024
   0.09388752  0.06922353  0.06002011       0.024
  -0.04694376  0.11105162  0.04287945       0.024
   0.00000000  0.14566339  0.05051973       0.024
   0.04694376  0.13172069  0.05623328       0.024
   0.09388752  0.11777800  0.06194683       0.024
  -0.04694376  0.15960608  0.04480618       0.024
   0.00000000 -0.14566339  0.03895937       0.024
   0.04694376 -0.15960608  0.04467293       0.024
   0.09388752 -0.17354878  0.05038648       0.024
  -0.04694376 -0.13172069  0.03324582       0.024
   0.00000000 -0.09710893  0.04088610       0.024
   0.04694376 -0.11105162  0.04659965       0.024
   0.09388752 -0.12499432  0.05231320       0.024
  -0.04694376 -0.08316623  0.03517255       0.024
   0.00000000 -0.04855446  0.04281282       0.024
   0.04694376 -0.06249716  0.04852638       0.024
   0.09388752 -0.07643985  0.05423993       0.024
  -0.04694376 -0.03461177  0.03709927       0.024
 
 k-points in reciprocal lattice and weights: Automatic mesh                          
   0.00000000  0.00000000  0.00000000       0.012
   0.25000000 -0.00000000  0.00000000       0.024
   0.50000000 -0.00000000  0.00000000       0.012
   0.00000000  0.14285714  0.00000000       0.024
   0.25000000  0.14285714  0.00000000       0.024
   0.50000000  0.14285714  0.00000000       0.024
  -0.25000000  0.14285714 -0.00000000       0.024
   0.00000000  0.28571429  0.00000000       0.024
   0.25000000  0.28571429  0.00000000       0.024
   0.50000000  0.28571429  0.00000000       0.024
  -0.25000000  0.28571429 -0.00000000       0.024
   0.00000000  0.42857143 -0.00000000       0.024
   0.25000000  0.42857143  0.00000000       0.024
   0.50000000  0.42857143  0.00000000       0.024
  -0.25000000  0.42857143 -0.00000000       0.024
   0.00000000  0.00000000  0.33333333       0.024
   0.25000000 -0.00000000  0.33333333       0.024
   0.50000000 -0.00000000  0.33333333       0.024
  -0.25000000  0.00000000  0.33333333       0.024
   0.00000000  0.14285714  0.33333333       0.024
   0.25000000  0.14285714  0.33333333       0.024
   0.50000000  0.14285714  0.33333333       0.024
  -0.25000000  0.14285714  0.33333333       0.024
   0.00000000  0.28571429  0.33333333       0.024
   0.25000000  0.28571429  0.33333333       0.024
   0.50000000  0.28571429  0.33333333       0.024
  -0.25000000  0.28571429  0.33333333       0.024
   0.00000000  0.42857143  0.33333333       0.024
   0.25000000  0.42857143  0.33333333       0.024
   0.50000000  0.42857143  0.33333333       0.024
  -0.25000000  0.42857143  0.33333333       0.024
   0.00000000 -0.42857143  0.33333333       0.024
   0.25000000 -0.42857143  0.33333333       0.024
   0.50000000 -0.42857143  0.33333333       0.024
  -0.25000000 -0.42857143  0.33333333       0.024
   0.00000000 -0.28571429  0.33333333       0.024
   0.25000000 -0.28571429  0.33333333       0.024
   0.50000000 -0.28571429  0.33333333       0.024
  -0.25000000 -0.28571429  0.33333333       0.024
   0.00000000 -0.14285714  0.33333333       0.024
   0.25000000 -0.14285714  0.33333333       0.024
   0.50000000 -0.14285714  0.33333333       0.024
  -0.25000000 -0.14285714  0.33333333       0.024
 
 position of ions in fractional coordinates (direct lattice) 
   0.79387832  0.38854549  0.95699440
   0.19560565  0.28030930  0.74558443
   0.71956814  0.47766519  0.76093267
   0.87945243  0.48849934  0.46002061
   0.92242728  0.42815217  0.65736742
   0.69207082  0.06031023  0.37081663
   0.21246241  0.40528141  0.35430364
   0.18262000  0.26002060  0.00958383
   0.65478739  0.97504542  0.06051515
   0.36539724  0.67765856  0.66347071
 
 position of ions in cartesian coordinates  (Angst):
   3.61550584  0.86024476  7.13011477
   0.54508086  0.60429516  5.55499864
   3.49265018  1.18041875  5.66935115
   4.65287772  1.30125970  3.42739703
   4.63272144  1.06536043  4.89773520
   3.36951965  0.06781308  2.76278013
   1.13323523  1.08767078  2.63974961
   1.19023604  0.76220025  0.07140458
   4.27894784  2.85089140  0.45086993
   1.87820900  1.79765472  4.94320797
 


--------------------------------------------------------------------------------------------------------


 k-point  1 :   0.0000 0.0000 0.0000  plane waves:    3493
 k-point  2 :   0.2500-0.0000 0.0000  plane waves:    3489
 k-point  3 :   0.5000-0.0000 0.0000  plane waves:    3496
 k-point  4 :   0.0000 0.1429 0.0000  plane waves:    3521
 k-point  5 :   0.2500 0.1429 0.0000  plane waves:    3502
 k-point  6 :   0.5000 0.1429 0.0000  plane waves:    3510
 k-point  7 :  -0.2500 0.1429-0.0000  plane waves:    3507
 k-point  8 :   0.0000 0.2857 0.0000  plane waves:    3511
 k-point  9 :   0.2500 0.2857 0.0000  plane waves:    3517
 k-point 10 :   0.5000 0.2857 0.0000  plane waves:    3526
 k-point 11 :  -0.2500 0.2857-0.0000  plane waves:    3517
 k-point 12 :   0.0000 0.4286-0.0000  plane waves:    3534
 k-point 13 :   0.2500 0.4286 0.0000  plane waves:    3526
 k-point 14 :   0.5000 0.4286 0.0000  plane waves:    3528
 k-point 15 :  -0.2500 0.4286-0.0000  plane waves:    3521
 k-point 16 :   0.0000 0.0000 0.3333  plane waves:    3498
 k-point 17 :   0.2500-0.0000 0.3333  plane waves:    3492
 k-point 18 :   0.5000-0.0000 0.3333  plane waves:    3505
 k-point 19 :  -0.2500 0.0000 0.3333  plane waves:    3496
 k-point 20 :   0.0000 0.1429 0.3333  plane waves:    3508
 k-point 21 :   0.2500 0.1429 0.3333  plane waves:    3501
 k-point 22 :   0.5000 0.1429 0.3333  plane waves:    3499
 k-point 23 :  -0.2500 0.1429 0.3333  plane waves:    3507
 k-point 24 :   0.0000 0.2857 0.3333  plane waves:    3511
 k-point 25 :   0.2500 0.2857 0.3333  plane waves:    3522
 k-point 26 :   0.5000 0.2857 0.3333  plane waves:    3515
 k-point 27 :  -0.2500 0.2857 0.3333  plane waves:    3520
 k-point 28 :   0.0000 0.4286 0.3333  plane waves:    3516
 k-point 29 :   0.2500 0.4286 0.3333  plane waves:    3517
 k-point 30 :   0.5000 0.4286 0.3333  plane waves:    3531
 k-point 31 :  -0.2500 0.4286 0.3333  plane waves:    3516
 k-point 32 :   0.0000-0.4286 0.3333  plane waves:    3526
 k-point 33 :   0.2500-0.4286 0.3333  plane waves:    3523
 k-point 34 :   0.5000-0.4286 0.3333  plane waves:    3526
 k-point 35 :  -0.2500-0.4286 0.3333  plane waves:    3531
 k-point 36 :   0.0000-0.2857 0.3333  plane waves:    3525
 k-point 37 :   0.2500-0.2857 0.3333  plane waves:    3518
 k-point 38 :   0.5000-0.2857 0.3333  plane waves:    3521
 k-point 39 :  -0.2500-0.2857 0.3333  plane waves:    3514
 k-point 40 :   0.0000-0.1429 0.3333  plane waves:    3507
 k-point 41 :   0.2500-0.1429 0.3333  plane waves:    3502
 k-point 42 :   0.5000-0.1429 0.3333  plane waves:    3501
 k-point 43 :  -0.2500-0.1429 0.3333  plane waves:    3509

 maximum and minimum number of plane-waves per node :      3534     3489

 maximum number of plane-waves:      3534
 maximum index in each direction: 
   IXMAX=   10   IYMAX=    6   IZMAX=   14
   IXMIN=  -10   IYMIN=   -6   IZMIN=  -14


 serial   3D FFT for wavefunctions
 parallel 3D FFT for charge:
    minimum data exchange during FFTs selected (reduces bandwidth)


 total amount of memory used by VASP MPI-rank0    67977. kBytes
=======================================================================

   base      :      30000. kBytes
   nonl-proj :      20027. kBytes
   fftplans  :       2045. kBytes
   grid      :       5893. kBytes
   one-center:         61. kBytes
   wavefun   :       9951. kBytes
 
     INWAV:  cpu time    0.0000: real time    0.0001
 Broyden mixing: mesh for mixing (old mesh)
   NGX = 21   NGY = 11   NGZ = 29
  (NGX  = 60   NGY  = 36   NGZ  = 84)
  gives a total of   6699 points

 initial charge density was supplied:
 charge density of overlapping atoms calculated
 number of electron      40.0000000 magnetization      10.0000000
 keeping initial charge density in first step


--------------------------------------------------------------------------------------------------------


 Maximum index for augmentation-charges         3314 (set IRDMAX)


--------------------------------------------------------------------------------------------------------


 First call to EWALD:  gamma=   0.363
 Maximum number of real-space cells 3x 4x 2
 Maximum number of reciprocal cells 3x 2x 4

    FEWALD:  cpu time    0.0010: real time    0.0014


--------------------------------------- Iteration      1(   1)  ---------------------------------------


    POTLOK:  cpu time    0.0180: real time    0.0183
    SETDIJ:  cpu time    0.2230: real time    0.2236
     EDDAV:  cpu time    2.2287: real time    2.2321
       DOS:  cpu time    0.0000: real time    0.0008
    --------------------------------------------
      LOOP:  cpu time    2.4696: real time    2.4749

 eigenvalue-minimisations  :  5504
 total energy-change (2. order) : 0.1007905E+03  (-0.1933715E+04)
 number of electron      40.0000000 magnetization      10.0000000
 augmentation part       40.0000000 magnetization      10.0000000

 Free energy of the ion-electron system (eV)
  ---------------------------------------------------
  alpha Z        PSCENC =        49.60133871
  Ewald energy   TEWEN  =     -1198.27995408
  -Hartree energ DENC   =      -268.03849382
  -exchange      EXHF   =         0.00000000
  -V(xc)+E(xc)   XCENC  =        22.86349296
  PAW double counting   =       982.13984335     -896.94558521
  entropy T*S    EENTRO =        -0.00045479
  eigenvalues    EBANDS =       158.37009633
  atomic energy  EATOM  =      1251.08021953
  Solvation  Ediel_sol  =         0.00000000
  ---------------------------------------------------
  free energy    TOTEN  =       100.79050298 eV

  energy without entropy =      100.79095777  energy(sigma->0) =      100.79073037


--------------------------------------------------------------------------------------------------------




--------------------------------------- Iteration      1(   2)  ---------------------------------------


     EDDAV:  cpu time    2.7906: real time    2.7942
       DOS:  cpu time    0.0000: real time    0.0006
    --------------------------------------------
      LOOP:  cpu time    2.7906: real time    2.7948

 eigenvalue-minimisations  :  7392
 total energy-change (2. order) :-0.1646569E+03  (-0.1599139E+03)
 number of electron      40.0000000 magnetization      10.0000000
 augmentation part       40.0000000 magnetization      10.0000000

 Free energy of the ion-electron system (eV)
  ---------------------------------------------------
  alpha Z        PSCENC =        49.60133871
  Ewald energy   TEWEN  =     -1198.27995408
  -Hartree energ DENC   =      -268.03849382
  -exchange      EXHF   =         0.00000000
  -V(xc)+E(xc)   XCENC  =        22.86349296
  PAW double counting   =       982.13984335     -896.94558521
  entropy T*S    EENTRO =        -0.00055308
  eigenvalues    EBANDS =        -6.28668318
  atomic energy  EATOM  =      1251.08021953
  Solvation  Ediel_sol  =         0.00000000
  ---------------------------------------------------
  free energy    TOTEN  =       -63.86637483 eV

  energy without entropy =      -63.86582174  energy(sigma->0) =      -63.86609828


--------------------------------------------------------------------------------------------------------




--------------------------------------- Iteration      1(   3)  ---------------------------------------


     EDDAV:  cpu time    2.9296: real time    2.9326
       DOS:  cpu time    0.0000: real time    0.0006
    --------------------------------------------
      LOOP:  cpu time    2.9296: real time    2.9333

 eigenvalue-minimisations  :  7824
 total energy-change (2. order) :-0.7917059E+01  (-0.7884059E+01)
 number of electron      40.0000000 magnetization      10.0000000
 augmentation part       40.0000000 magnetization      10.0000000

 Free energy of the ion-electron system (eV)
  ---------------------------------------------------
  alpha Z        PSCENC =        49.60133871
  Ewald energy   TEWEN  =     -1198.27995408
  -Hartree energ DENC   =      -268.03849382
  -exchange      EXHF   =         0.00000000
  -V(xc)+E(xc)   XCENC  =        22.86349296
  PAW double counting   =       982.13984335     -896.94558521
  entropy T*S    EENTRO =        -0.00036145
  eigenvalues    EBANDS =       -14.20393427
  atomic energy  EATOM  =      1251.08021953
  Solvation  Ediel_sol  =         0.00000000
  ---------------------------------------------------
  free energy    TOTEN  =       -71.78343427 eV

  energy without entropy =      -71.78307282  energy(sigma->0) =      -71.78325355


--------------------------------------------------------------------------------------------------------




--------------------------------------- Iteration      1(   4)  ---------------------------------------


     EDDAV:  cpu time    2.7156: real time    2.7184
       DOS:  cpu time    0.0000: real time    0.0006
    --------------------------------------------
      LOOP:  cpu time    2.7156: real time    2.7190

 eigenvalue-minimisations  :  7152
 total energy-change (2. order) :-0.7660260E-01  (-0.7659135E-01)
 number of electron      40.0000000 magnetization      10.0000000
 augmentation part       40.0000000 magnetization      10.0000000

 Free energy of the ion-electron system (eV)
  ---------------------------------------------------
  alpha Z        PSCENC =        49.60133871
  Ewald energy   TEWEN  =     -1198.27995408
  -Hartree energ DENC   =      -268.03849382
  -exchange      EXHF   =         0.00000000
  -V(xc)+E(xc)   XCENC  =        22.86349296
  PAW double counting   =       982.13984335     -896.94558521
  entropy T*S    EENTRO =        -0.00035565
  eigenvalues    EBANDS =       -14.28054267
  atomic energy  EATOM  =      1251.08021953
  Solvation  Ediel_sol  =         0.00000000
  ---------------------------------------------------
  free energy    TOTEN  =       -71.86003687 eV

  energy without entropy =      -71.85968123  energy(sigma->0) =      -71.85985905


--------------------------------------------------------------------------------------------------------




--------------------------------------- Iteration      1(   5)  ---------------------------------------


     EDDAV:  cpu time    2.9765: real time    2.9810
       DOS:  cpu time    0.0010: real time    0.0006
    CHARGE:  cpu time    0.1860: real time    0.1869
    MIXING:  cpu time    0.0010: real time    0.0008
    --------------------------------------------
      LOOP:  cpu time    3.1645: real time    3.1694

 eigenvalue-minimisations  :  7920
 total energy-change (2. order) :-0.1316867E-02  (-0.1316795E-02)
 number of electron      40.0000000 magnetization       4.0406022
 augmentation part       -0.4546258 magnetization       3.0177295

 Broyden mixing:
  rms(total) = 0.18894E+01    rms(broyden)= 0.18893E+01
  rms(prec ) = 0.26774E+01
  weight for this iteration     100.00

 Free energy of the ion-electron system (eV)
  ---------------------------------------------------
  alpha Z        PSCENC =        49.60133871
  Ewald energy   TEWEN  =     -1198.27995408
  -Hartree energ DENC   =      -268.03849382
  -exchange      EXHF   =         0.00000000
  -V(xc)+E(xc)   XCENC  =        22.86349296
  PAW double counting   =       982.13984335     -896.94558521
  entropy T*S    EENTRO =        -0.00035563
  eigenvalues    EBANDS =       -14.28185955
  atomic energy  EATOM  =      1251.08021953
  Solvation  Ediel_sol  =         0.00000000
  ---------------------------------------------------
  free energy    TOTEN  =       -71.86135374 eV

  energy without entropy =      -71.86099811  energy(sigma->0) =      -71.86117592


--------------------------------------------------------------------------------------------------------




--------------------------------------- Iteration      1(   6)  ---------------------------------------


    POTLOK:  cpu time    0.0150: real time    0.0145
    SETDIJ:  cpu time    0.2220: real time    0.2227
     EDDAV:  cpu time    2.8196: real time    2.8222
       DOS:  cpu time    0.0000: real time    0.0007
    CHARGE:  cpu time    0.1840: real time    0.1845
    MIXING:  cpu time    0.0010: real time    0.0007
    --------------------------------------------
      LOOP:  cpu time    3.2415: real time    3.2453

 eigenvalue-minimisations  :  7424
 total energy-change (2. order) : 0.3839970E+01  (-0.2191600E+01)
 number of electron      40.0000000 magnetization       1.6914798
 augmentation part       -0.6704968 magnetization       0.9810449

 Broyden mixing:
  rms(total) = 0.87508E+00    rms(broyden)= 0.87502E+00
  rms(prec ) = 0.10196E+01
  weight for this iteration     100.00

 eigenvalues of (default mixing * dielectric matrix)
  average eigenvalue GAMMA=   1.0248
  1.0248

 Free energy of the ion-electron system (eV)
  ---------------------------------------------------
  alpha Z        PSCENC =        49.60133871
  Ewald energy   TEWEN  =     -1198.27995408
  -Hartree energ DENC   =      -309.68256604
  -exchange      EXHF   =         0.00000000
  -V(xc)+E(xc)   XCENC  =        24.32138198
  PAW double counting   =      1990.29045020    -1905.64047471
  entropy T*S    EENTRO =        -0.00086793
  eigenvalues    EBANDS =        30.28908839
  atomic energy  EATOM  =      1251.08021953
  Solvation  Ediel_sol  =         0.00000000
  ---------------------------------------------------
  free energy    TOTEN  =       -68.02138396 eV

  energy without entropy =      -68.02051604  energy(sigma->0) =      -68.02095000


--------------------------------------------------------------------------------------------------------




--------------------------------------- Iteration      1(   7)  ---------------------------------------


    POTLOK:  cpu time    0.0150: real time    0.0143
    SETDIJ:  cpu time    0.2220: real time    0.2220
     EDDAV:  cpu time    2.6476: real time    2.6574
       DOS:  cpu time    0.0000: real time    0.0006
    CHARGE:  cpu time    0.1870: real time    0.1864
    MIXING:  cpu time    0.0000: real time    0.0005
    --------------------------------------------
      LOOP:  cpu time    3.0715: real time    3.0812

 eigenvalue-minimisations  :  6896
 total energy-change (2. order) :-0.6598916E+00  (-0.4115475E+00)
 number of electron      40.0000000 magnetization       0.3631209
 augmentation part       -0.7188952 magnetization       0.0654957

 Broyden mixing:
  rms(total) = 0.42351E+00    rms(broyden)= 0.42349E+00
  rms(prec ) = 0.48274E+00
  weight for this iteration     100.00

 eigenvalues of (default mixing * dielectric matrix)
  average eigenvalue GAMMA=   1.1638
  0.8127  1.5148

 Free energy of the ion-electron system (eV)
  ---------------------------------------------------
  alpha Z        PSCENC =        49.60133871
  Ewald energy   TEWEN  =     -1198.27995408
  -Hartree energ DENC   =      -313.72938008
  -exchange      EXHF   =         0.00000000
  -V(xc)+E(xc)   XCENC  =        24.65530596
  PAW double counting   =      2984.33496147    -2899.92903367
  entropy T*S    EENTRO =        -0.00044555
  eigenvalues    EBANDS =        33.58571216
  atomic energy  EATOM  =      1251.08021953
  Solvation  Ediel_sol  =         0.00000000
  ---------------------------------------------------
  free energy    TOTEN  =       -68.68127556 eV

  energy without entropy =      -68.68083001  energy(sigma->0) =      -68.68105278


--------------------------------------------------------------------------------------------------------




--------------------------------------- Iteration      1(   8)  ---------------------------------------


    POTLOK:  cpu time    0.0140: real time    0.0143
    SETDIJ:  cpu time    0.2240: real time    0.2237
     EDDAV:  cpu time    3.0675: real time    3.0759
       DOS:  cpu time    0.0000: real time    0.0007
    CHARGE:  cpu time    0.1850: real time    0.1856
    MIXING:  cpu time    0.0010: real time    0.0005
    --------------------------------------------
      LOOP:  cpu time    3.4915: real time    3.5007

 eigenvalue-minimisations  :  8160
 total energy-change (2. order) :-0.4779786E-01  (-0.2372458E-01)
 number of electron      40.0000000 magnetization      -0.0602183
 augmentation part       -0.7116415 magnetization      -0.1542894

 Broyden mixing:
  rms(total) = 0.19535E+00    rms(broyden)= 0.19535E+00
  rms(prec ) = 0.21858E+00
  weight for this iteration     100.00

 eigenvalues of (default mixing * dielectric matrix)
  average eigenvalue GAMMA=   1.1925
  1.8690  1.0262  0.6822

 Free energy of the ion-electron system (eV)
  ---------------------------------------------------
  alpha Z        PSCENC =        49.60133871
  Ewald energy   TEWEN  =     -1198.27995408
  -Hartree energ DENC   =      -315.49695562
  -exchange      EXHF   =         0.00000000
  -V(xc)+E(xc)   XCENC  =        24.96827195
  PAW double counting   =      3656.99231755    -3572.68219813
  entropy T*S    EENTRO =        -0.00050725
  eigenvalues    EBANDS =        35.08839393
  atomic energy  EATOM  =      1251.08021953
  Solvation  Ediel_sol  =         0.00000000
  ---------------------------------------------------
  free energy    TOTEN  =       -68.72907342 eV

  energy without entropy =      -68.72856617  energy(sigma->0) =      -68.72881980


--------------------------------------------------------------------------------------------------------




--------------------------------------- Iteration      1(   9)  ---------------------------------------


    POTLOK:  cpu time    0.0140: real time    0.0143
    SETDIJ:  cpu time    0.2230: real time    0.2227
     EDDAV:  cpu time    2.8826: real time    2.8893
       DOS:  cpu time    0.0000: real time    0.0007
    CHARGE:  cpu time    0.1840: real time    0.1839
    MIXING:  cpu time    0.0010: real time    0.0006
    --------------------------------------------
      LOOP:  cpu time    3.3045: real time    3.3115

 eigenvalue-minimisations  :  7664
 total energy-change (2. order) :-0.1534101E-02  (-0.5145502E-02)
 number of electron      40.0000000 magnetization      -0.1092035
 augmentation part       -0.7089394 magnetization      -0.1094768

 Broyden mixing:
  rms(total) = 0.89020E-01    rms(broyden)= 0.89019E-01
  rms(prec ) = 0.96386E-01
  weight for this iteration     100.00

 eigenvalues of (default mixing * dielectric matrix)
  average eigenvalue GAMMA=   1.1832
  2.1284  1.1792  0.8338  0.5916

 Free energy of the ion-electron system (eV)
  ---------------------------------------------------
  alpha Z        PSCENC =        49.60133871
  Ewald energy   TEWEN  =     -1198.27995408
  -Hartree energ DENC   =      -317.09648205
  -exchange      EXHF   =         0.00000000
  -V(xc)+E(xc)   XCENC  =        25.17059706
  PAW double counting   =      3996.29145748    -3912.02195518
  entropy T*S    EENTRO =        -0.00083858
  eigenvalues    EBANDS =        36.52500959
  atomic energy  EATOM  =      1251.08021953
  Solvation  Ediel_sol  =         0.00000000
  ---------------------------------------------------
  free energy    TOTEN  =       -68.73060752 eV

  energy without entropy =      -68.72976894  energy(sigma->0) =      -68.73018823


--------------------------------------------------------------------------------------------------------




--------------------------------------- Iteration      1(  10)  ---------------------------------------


    POTLOK:  cpu time    0.0140: real time    0.0143
    SETDIJ:  cpu time    0.2230: real time    0.2227
     EDDAV:  cpu time    3.0745: real time    3.0788
       DOS:  cpu time    0.0010: real time    0.0006
    CHARGE:  cpu time    0.1840: real time    0.1843
    MIXING:  cpu time    0.0010: real time    0.0006
    --------------------------------------------
      LOOP:  cpu time    3.4975: real time    3.5013

 eigenvalue-minimisations  :  8208
 total energy-change (2. order) : 0.2858943E-02  (-0.6083295E-03)
 number of electron      40.0000000 magnetization      -0.0563231
 augmentation part       -0.7099596 magnetization      -0.0312830

 Broyden mixing:
  rms(total) = 0.25688E-01    rms(broyden)= 0.25687E-01
  rms(prec ) = 0.29561E-01
  weight for this iteration     100.00

 eigenvalues of (default mixing * dielectric matrix)
  average eigenvalue GAMMA=   1.1810
  2.3036  1.2610  0.9097  0.8309  0.6000

 Free energy of the ion-electron system (eV)
  ---------------------------------------------------
  alpha Z        PSCENC =        49.60133871
  Ewald energy   TEWEN  =     -1198.27995408
  -Hartree energ DENC   =      -317.74945839
  -exchange      EXHF   =         0.00000000
  -V(xc)+E(xc)   XCENC  =        25.25246298
  PAW double counting   =      4117.71766751    -4033.45741333
  entropy T*S    EENTRO =        -0.00081678
  eigenvalues    EBANDS =        37.10820527
  atomic energy  EATOM  =      1251.08021953
  Solvation  Ediel_sol  =         0.00000000
  ---------------------------------------------------
  free energy    TOTEN  =       -68.72774858 eV

  energy without entropy =      -68.72693180  energy(sigma->0) =      -68.72734019


--------------------------------------------------------------------------------------------------------




--------------------------------------- Iteration      1(  11)  ---------------------------------------


    POTLOK:  cpu time    0.0140: real time    0.0143
    SETDIJ:  cpu time    0.2230: real time    0.2227
     EDDAV:  cpu time    2.7396: real time    2.7432
       DOS:  cpu time    0.0000: real time    0.0007
    CHARGE:  cpu time    0.1860: real time    0.1855
    MIXING:  cpu time    0.0010: real time    0.0006
    --------------------------------------------
      LOOP:  cpu time    3.1635: real time    3.1670

 eigenvalue-minimisations  :  7232
 total energy-change (2. order) :-0.1256682E-02  (-0.1848324E-03)
 number of electron      40.0000000 magnetization      -0.0231964
 augmentation part       -0.7102333 magnetization       0.0055199

 Broyden mixing:
  rms(total) = 0.11247E-01    rms(broyden)= 0.11247E-01
  rms(prec ) = 0.13026E-01
  weight for this iteration     100.00

 eigenvalues of (default mixing * dielectric matrix)
  average eigenvalue GAMMA=   1.2131
  2.3897  1.5987  1.0539  0.8151  0.8151  0.6062

 Free energy of the ion-electron system (eV)
  ---------------------------------------------------
  alpha Z        PSCENC =        49.60133871
  Ewald energy   TEWEN  =     -1198.27995408
  -Hartree energ DENC   =      -317.83173111
  -exchange      EXHF   =         0.00000000
  -V(xc)+E(xc)   XCENC  =        25.27118390
  PAW double counting   =      4141.83708313    -4057.57252421
  entropy T*S    EENTRO =        -0.00080138
  eigenvalues    EBANDS =        37.16618025
  atomic energy  EATOM  =      1251.08021953
  Solvation  Ediel_sol  =         0.00000000
  ---------------------------------------------------
  free energy    TOTEN  =       -68.72900526 eV

  energy without entropy =      -68.72820389  energy(sigma->0) =      -68.72860457


--------------------------------------------------------------------------------------------------------




--------------------------------------- Iteration      1(  12)  ---------------------------------------


    POTLOK:  cpu time    0.0140: real time    0.0143
    SETDIJ:  cpu time    0.2230: real time    0.2231
     EDDAV:  cpu time    3.0455: real time    3.0480
       DOS:  cpu time    0.0010: real time    0.0006
    CHARGE:  cpu time    0.1840: real time    0.1845
    MIXING:  cpu time    0.0010: real time    0.0007
    --------------------------------------------
      LOOP:  cpu time    3.4685: real time    3.4712

 eigenvalue-minimisations  :  8160
 total energy-change (2. order) :-0.2268730E-03  (-0.4287753E-04)
 number of electron      40.0000000 magnetization      -0.0177465
 augmentation part       -0.7101975 magnetization       0.0056750

 Broyden mixing:
  rms(total) = 0.51148E-02    rms(broyden)= 0.51147E-02
  rms(prec ) = 0.58188E-02
  weight for this iteration     100.00

 eigenvalues of (default mixing * dielectric matrix)
  average eigenvalue GAMMA=   1.2065
  2.3877  1.8626  1.0137  0.9355  0.9355  0.6124  0.6979

 Free energy of the ion-electron system (eV)
  ---------------------------------------------------
  alpha Z        PSCENC =        49.60133871
  Ewald energy   TEWEN  =     -1198.27995408
  -Hartree energ DENC   =      -317.84091683
  -exchange      EXHF   =         0.00000000
  -V(xc)+E(xc)   XCENC  =        25.27670683
  PAW double counting   =      4139.90869162    -4055.63995723
  entropy T*S    EENTRO =        -0.00082074
  eigenvalues    EBANDS =        37.16546005
  atomic energy  EATOM  =      1251.08021953
  Solvation  Ediel_sol  =         0.00000000
  ---------------------------------------------------
  free energy    TOTEN  =       -68.72923214 eV

  energy without entropy =      -68.72841139  energy(sigma->0) =      -68.72882176


--------------------------------------------------------------------------------------------------------




--------------------------------------- Iteration      1(  13)  ---------------------------------------


    POTLOK:  cpu time    0.0140: real time    0.0143
    SETDIJ:  cpu time    0.2230: real time    0.2227
     EDDAV:  cpu time    2.7866: real time    2.7906
       DOS:  cpu time    0.0000: real time    0.0006
    CHARGE:  cpu time    0.1840: real time    0.1844
    MIXING:  cpu time    0.0020: real time    0.0007
    --------------------------------------------
      LOOP:  cpu time    3.2095: real time    3.2133

 eigenvalue-minimisations  :  7376
 total energy-change (2. order) :-0.3653655E-04  (-0.5690848E-05)
 number of electron      40.0000000 magnetization      -0.0153218
 augmentation part       -0.7101797 magnetization       0.0025780

 Broyden mixing:
  rms(total) = 0.24898E-02    rms(broyden)= 0.24897E-02
  rms(prec ) = 0.28115E-02
  weight for this iteration     100.00

 eigenvalues of (default mixing * dielectric matrix)
  average eigenvalue GAMMA=   1.2535
  2.3030  2.3030  1.1769  1.1769  0.8963  0.8963  0.6289  0.6466

 Free energy of the ion-electron system (eV)
  ---------------------------------------------------
  alpha Z        PSCENC =        49.60133871
  Ewald energy   TEWEN  =     -1198.27995408
  -Hartree energ DENC   =      -317.85331268
  -exchange      EXHF   =         0.00000000
  -V(xc)+E(xc)   XCENC  =        25.27938508
  PAW double counting   =      4134.98743012    -4050.71726092
  entropy T*S    EENTRO =        -0.00083891
  eigenvalues    EBANDS =        37.17372449
  atomic energy  EATOM  =      1251.08021953
  Solvation  Ediel_sol  =         0.00000000
  ---------------------------------------------------
  free energy    TOTEN  =       -68.72926867 eV

  energy without entropy =      -68.72842977  energy(sigma->0) =      -68.72884922


--------------------------------------------------------------------------------------------------------




--------------------------------------- Iteration      1(  14)  ---------------------------------------


    POTLOK:  cpu time    0.0140: real time    0.0143
    SETDIJ:  cpu time    0.2230: real time    0.2227
     EDDAV:  cpu time    2.9236: real time    2.9270
       DOS:  cpu time    0.0000: real time    0.0006
    CHARGE:  cpu time    0.1850: real time    0.1857
    MIXING:  cpu time    0.0020: real time    0.0008
    --------------------------------------------
      LOOP:  cpu time    3.3475: real time    3.3511

 eigenvalue-minimisations  :  7728
 total energy-change (2. order) :-0.1264510E-04  (-0.2383124E-05)
 number of electron      40.0000000 magnetization      -0.0130055
 augmentation part       -0.7101920 magnetization       0.0003718

 Broyden mixing:
  rms(total) = 0.97289E-03    rms(broyden)= 0.97276E-03
  rms(prec ) = 0.11074E-02
  weight for this iteration     100.00

 eigenvalues of (default mixing * dielectric matrix)
  average eigenvalue GAMMA=   1.2756
  2.4932  2.4932  1.3410  1.1093  1.1093  0.9052  0.7737  0.6278  0.6278

 Free energy of the ion-electron system (eV)
  ---------------------------------------------------
  alpha Z        PSCENC =        49.60133871
  Ewald energy   TEWEN  =     -1198.27995408
  -Hartree energ DENC   =      -317.86554858
  -exchange      EXHF   =         0.00000000
  -V(xc)+E(xc)   XCENC  =        25.28147514
  PAW double counting   =      4130.76236321    -4046.49169032
  entropy T*S    EENTRO =        -0.00085076
  eigenvalues    EBANDS =        37.18336583
  atomic energy  EATOM  =      1251.08021953
  Solvation  Ediel_sol  =         0.00000000
  ---------------------------------------------------
  free energy    TOTEN  =       -68.72928132 eV

  energy without entropy =      -68.72843056  energy(sigma->0) =      -68.72885594


--------------------------------------------------------------------------------------------------------




--------------------------------------- Iteration      1(  15)  ---------------------------------------


    POTLOK:  cpu time    0.0140: real time    0.0143
    SETDIJ:  cpu time    0.2230: real time    0.2233
     EDDAV:  cpu time    3.0025: real time    3.0057
       DOS:  cpu time    0.0000: real time    0.0006
    CHARGE:  cpu time    0.1860: real time    0.1858
    MIXING:  cpu time    0.0020: real time    0.0009
    --------------------------------------------
      LOOP:  cpu time    3.4275: real time    3.4307

 eigenvalue-minimisations  :  8032
 total energy-change (2. order) :-0.2591012E-05  (-0.4273497E-06)
 number of electron      40.0000000 magnetization      -0.0108401
 augmentation part       -0.7101934 magnetization       0.0002348

 Broyden mixing:
  rms(total) = 0.44370E-03    rms(broyden)= 0.44348E-03
  rms(prec ) = 0.49597E-03
  weight for this iteration     100.00

 eigenvalues of (default mixing * dielectric matrix)
  average eigenvalue GAMMA=   1.2882
  2.6004  2.6004  1.4389  1.4389  0.9664  0.9664  0.9186  0.7049  0.6237  0.6237

 Free energy of the ion-electron system (eV)
  ---------------------------------------------------
  alpha Z        PSCENC =        49.60133871
  Ewald energy   TEWEN  =     -1198.27995408
  -Hartree energ DENC   =      -317.87176921
  -exchange      EXHF   =         0.00000000
  -V(xc)+E(xc)   XCENC  =        25.28235278
  PAW double counting   =      4129.41900230    -4045.14836869
  entropy T*S    EENTRO =        -0.00085592
  eigenvalues    EBANDS =        37.18875068
  atomic energy  EATOM  =      1251.08021953
  Solvation  Ediel_sol  =         0.00000000
  ---------------------------------------------------
  free energy    TOTEN  =       -68.72928391 eV

  energy without entropy =      -68.72842799  energy(sigma->0) =      -68.72885595


--------------------------------------------------------------------------------------------------------




--------------------------------------- Iteration      1(  16)  ---------------------------------------


    POTLOK:  cpu time    0.0140: real time    0.0143
    SETDIJ:  cpu time    0.2230: real time    0.2227
     EDDAV:  cpu time    3.0395: real time    3.0434
       DOS:  cpu time    0.0000: real time    0.0007
    CHARGE:  cpu time    0.1860: real time    0.1857
    MIXING:  cpu time    0.0010: real time    0.0010
    --------------------------------------------
      LOOP:  cpu time    3.4635: real time    3.4677

 eigenvalue-minimisations  :  8128
 total energy-change (2. order) :-0.1172082E-05  (-0.1813054E-06)
 number of electron      40.0000000 magnetization      -0.0091728
 augmentation part       -0.7101901 magnetization      -0.0000586

 Broyden mixing:
  rms(total) = 0.26787E-03    rms(broyden)= 0.26754E-03
  rms(prec ) = 0.28280E-03
  weight for this iteration     100.00

 eigenvalues of (default mixing * dielectric matrix)
  average eigenvalue GAMMA=   1.2971
  2.6991  2.6161  1.6489  1.6489  0.9796  0.9796  0.8799  0.8799  0.6846  0.6255
  0.6255

 Free energy of the ion-electron system (eV)
  ---------------------------------------------------
  alpha Z        PSCENC =        49.60133871
  Ewald energy   TEWEN  =     -1198.27995408
  -Hartree energ DENC   =      -317.87568641
  -exchange      EXHF   =         0.00000000
  -V(xc)+E(xc)   XCENC  =        25.28278016
  PAW double counting   =      4128.96535287    -4044.69484039
  entropy T*S    EENTRO =        -0.00085950
  eigenvalues    EBANDS =        37.19236403
  atomic energy  EATOM  =      1251.08021953
  Solvation  Ediel_sol  =         0.00000000
  ---------------------------------------------------
  free energy    TOTEN  =       -68.72928508 eV

  energy without entropy =      -68.72842558  energy(sigma->0) =      -68.72885533


--------------------------------------------------------------------------------------------------------




--------------------------------------- Iteration      1(  17)  ---------------------------------------


    POTLOK:  cpu time    0.0140: real time    0.0143
    SETDIJ:  cpu time    0.2230: real time    0.2226
     EDDAV:  cpu time    2.9216: real time    2.9245
       DOS:  cpu time    0.0010: real time    0.0007
    CHARGE:  cpu time    0.1840: real time    0.1849
    MIXING:  cpu time    0.0010: real time    0.0010
    --------------------------------------------
      LOOP:  cpu time    3.3445: real time    3.3480

 eigenvalue-minimisations  :  7776
 total energy-change (2. order) :-0.5821080E-06  (-0.6355275E-07)
 number of electron      40.0000000 magnetization      -0.0064220
 augmentation part       -0.7101846 magnetization       0.0013237

 Broyden mixing:
  rms(total) = 0.21088E-03    rms(broyden)= 0.21048E-03
  rms(prec ) = 0.21477E-03
  weight for this iteration     100.00

 eigenvalues of (default mixing * dielectric matrix)
  average eigenvalue GAMMA=   1.4164
  3.4495  2.6552  2.4017  1.6785  1.0494  1.0494  0.9969  0.9969  0.7904  0.6793
  0.6149  0.6347

 Free energy of the ion-electron system (eV)
  ---------------------------------------------------
  alpha Z        PSCENC =        49.60133871
  Ewald energy   TEWEN  =     -1198.27995408
  -Hartree energ DENC   =      -317.87664561
  -exchange      EXHF   =         0.00000000
  -V(xc)+E(xc)   XCENC  =        25.28287144
  PAW double counting   =      4128.96732744    -4044.69686469
  entropy T*S    EENTRO =        -0.00086139
  eigenvalues    EBANDS =        37.19328300
  atomic energy  EATOM  =      1251.08021953
  Solvation  Ediel_sol  =         0.00000000
  ---------------------------------------------------
  free energy    TOTEN  =       -68.72928566 eV

  energy without entropy =      -68.72842427  energy(sigma->0) =      -68.72885497


--------------------------------------------------------------------------------------------------------




--------------------------------------- Iteration      1(  18)  ---------------------------------------


    POTLOK:  cpu time    0.0150: real time    0.0147
    SETDIJ:  cpu time    0.2230: real time    0.2228
     EDDAV:  cpu time    2.8246: real time    2.8274
       DOS:  cpu time    0.0000: real time    0.0006
    CHARGE:  cpu time    0.1840: real time    0.1843
    MIXING:  cpu time    0.0010: real time    0.0010
    --------------------------------------------
      LOOP:  cpu time    3.2475: real time    3.2509

 eigenvalue-minimisations  :  7504
 total energy-change (2. order) :-0.6726591E-06  (-0.1439529E-06)
 number of electron      40.0000000 magnetization      -0.0045284
 augmentation part       -0.7101800 magnetization       0.0009530

 Broyden mixing:
  rms(total) = 0.14772E-03    rms(broyden)= 0.14712E-03
  rms(prec ) = 0.14818E-03
  weight for this iteration     100.00

 eigenvalues of (default mixing * dielectric matrix)
  average eigenvalue GAMMA=   1.5007
  4.9552  2.7139  2.4598  1.7339  1.0803  1.0803  1.0913  0.9714  0.8132  0.7240
  0.6094  0.6382  0.6382

 Free energy of the ion-electron system (eV)
  ---------------------------------------------------
  alpha Z        PSCENC =        49.60133871
  Ewald energy   TEWEN  =     -1198.27995408
  -Hartree energ DENC   =      -317.87740924
  -exchange      EXHF   =         0.00000000
  -V(xc)+E(xc)   XCENC  =        25.28294576
  PAW double counting   =      4129.04935184    -4044.77892872
  entropy T*S    EENTRO =        -0.00086391
  eigenvalues    EBANDS =        37.19401378
  atomic energy  EATOM  =      1251.08021953
  Solvation  Ediel_sol  =         0.00000000
  ---------------------------------------------------
  free energy    TOTEN  =       -68.72928633 eV

  energy without entropy =      -68.72842243  energy(sigma->0) =      -68.72885438


--------------------------------------------------------------------------------------------------------




--------------------------------------- Iteration      1(  19)  ---------------------------------------


    POTLOK:  cpu time    0.0150: real time    0.0147
    SETDIJ:  cpu time    0.2230: real time    0.2226
     EDDAV:  cpu time    2.8906: real time    2.8942
       DOS:  cpu time    0.0010: real time    0.0007
    CHARGE:  cpu time    0.1840: real time    0.1842
    MIXING:  cpu time    0.0010: real time    0.0011
    --------------------------------------------
      LOOP:  cpu time    3.3145: real time    3.3175

 eigenvalue-minimisations  :  7680
 total energy-change (2. order) :-0.2999141E-06  (-0.7682491E-07)
 number of electron      40.0000000 magnetization      -0.0025568
 augmentation part       -0.7101795 magnetization       0.0013425

 Broyden mixing:
  rms(total) = 0.10369E-03    rms(broyden)= 0.10287E-03
  rms(prec ) = 0.10475E-03
  weight for this iteration     100.00

 eigenvalues of (default mixing * dielectric matrix)
  average eigenvalue GAMMA=   1.6082
  6.8780  2.7323  2.4356  1.8379  1.2430  1.0791  1.0791  0.9516  0.9516  0.8082
  0.6948  0.6229  0.6229  0.5782

 Free energy of the ion-electron system (eV)
  ---------------------------------------------------
  alpha Z        PSCENC =        49.60133871
  Ewald energy   TEWEN  =     -1198.27995408
  -Hartree energ DENC   =      -317.87764649
  -exchange      EXHF   =         0.00000000
  -V(xc)+E(xc)   XCENC  =        25.28296732
  PAW double counting   =      4129.08765642    -4044.81723494
  entropy T*S    EENTRO =        -0.00086519
  eigenvalues    EBANDS =        37.19423210
  atomic energy  EATOM  =      1251.08021953
  Solvation  Ediel_sol  =         0.00000000
  ---------------------------------------------------
  free energy    TOTEN  =       -68.72928663 eV

  energy without entropy =      -68.72842144  energy(sigma->0) =      -68.72885404


--------------------------------------------------------------------------------------------------------




--------------------------------------- Iteration      1(  20)  ---------------------------------------


    POTLOK:  cpu time    0.0140: real time    0.0143
    SETDIJ:  cpu time    0.2230: real time    0.2227
     EDDAV:  cpu time    2.7206: real time    2.7237
       DOS:  cpu time    0.0000: real time    0.0006
    CHARGE:  cpu time    0.1840: real time    0.1840
    MIXING:  cpu time    0.0110: real time    0.0104
    --------------------------------------------
      LOOP:  cpu time    3.1525: real time    3.1558

 eigenvalue-minimisations  :  7168
 total energy-change (2. order) :-0.1888111E-06  (-0.8381724E-07)
 number of electron      40.0000000 magnetization      -0.0007475
 augmentation part       -0.7101803 magnetization       0.0014663

 Broyden mixing:
  rms(total) = 0.62014E-04    rms(broyden)= 0.60635E-04
  rms(prec ) = 0.64081E-04
  weight for this iteration     100.00

 eigenvalues of (default mixing * dielectric matrix)
  average eigenvalue GAMMA=   1.6562
  7.8705  2.7568  2.3955  2.0404  1.4289  1.2415  0.9820  0.9820  0.9577  0.8232
  0.8232  0.6864  0.6011  0.6269  0.6269

 Free energy of the ion-electron system (eV)
  ---------------------------------------------------
  alpha Z        PSCENC =        49.60133871
  Ewald energy   TEWEN  =     -1198.27995408
  -Hartree energ DENC   =      -317.87767112
  -exchange      EXHF   =         0.00000000
  -V(xc)+E(xc)   XCENC  =        25.28297057
  PAW double counting   =      4129.12128564    -4044.85085315
  entropy T*S    EENTRO =        -0.00086607
  eigenvalues    EBANDS =        37.19424316
  atomic energy  EATOM  =      1251.08021953
  Solvation  Ediel_sol  =         0.00000000
  ---------------------------------------------------
  free energy    TOTEN  =       -68.72928682 eV

  energy without entropy =      -68.72842075  energy(sigma->0) =      -68.72885379


--------------------------------------------------------------------------------------------------------




--------------------------------------- Iteration      1(  21)  ---------------------------------------


    POTLOK:  cpu time    0.0140: real time    0.0145
    SETDIJ:  cpu time    0.2230: real time    0.2227
     EDDAV:  cpu time    2.9905: real time    2.9932
       DOS:  cpu time    0.0000: real time    0.0007
    CHARGE:  cpu time    0.1840: real time    0.1842
    MIXING:  cpu time    0.0010: real time    0.0012
    --------------------------------------------
      LOOP:  cpu time    3.4125: real time    3.4164

 eigenvalue-minimisations  :  7584
 total energy-change (2. order) :-0.7449898E-07  (-0.7458053E-07)
 number of electron      40.0000000 magnetization      -0.0002586
 augmentation part       -0.7101810 magnetization       0.0003859

 Broyden mixing:
  rms(total) = 0.29473E-04    rms(broyden)= 0.26467E-04
  rms(prec ) = 0.30666E-04
  weight for this iteration     100.00
  WARNING: grid for Broyden might be to small

 eigenvalues of (default mixing * dielectric matrix)
  average eigenvalue GAMMA=   1.6454
  8.0831  2.7877  2.3591  2.1801  1.5038  1.3351  1.0238  1.0238  0.9835  0.9009
  0.9009  0.7078  0.6995  0.6332  0.6172  0.5875

 Free energy of the ion-electron system (eV)
  ---------------------------------------------------
  alpha Z        PSCENC =        49.60133871
  Ewald energy   TEWEN  =     -1198.27995408
  -Hartree energ DENC   =      -317.87752638
  -exchange      EXHF   =         0.00000000
  -V(xc)+E(xc)   XCENC  =        25.28296061
  PAW double counting   =      4129.14588311    -4044.87543806
  entropy T*S    EENTRO =        -0.00086644
  eigenvalues    EBANDS =        37.19409611
  atomic energy  EATOM  =      1251.08021953
  Solvation  Ediel_sol  =         0.00000000
  ---------------------------------------------------
  free energy    TOTEN  =       -68.72928690 eV

  energy without entropy =      -68.72842046  energy(sigma->0) =      -68.72885368


--------------------------------------------------------------------------------------------------------




--------------------------------------- Iteration      1(  22)  ---------------------------------------


    POTLOK:  cpu time    0.0150: real time    0.0149
    SETDIJ:  cpu time    0.2240: real time    0.2230
     EDDAV:  cpu time    2.9536: real time    2.9571
       DOS:  cpu time    0.0000: real time    0.0007
    CHARGE:  cpu time    0.1840: real time    0.1841
    MIXING:  cpu time    0.0010: real time    0.0012
    --------------------------------------------
      LOOP:  cpu time    3.3775: real time    3.3809

 eigenvalue-minimisations  :  7840
 total energy-change (2. order) :-0.1273838E-07  (-0.8510757E-08)
 number of electron      40.0000000 magnetization      -0.0000904
 augmentation part       -0.7101811 magnetization       0.0001286

 Broyden mixing:
  rms(total) = 0.26062E-04    rms(broyden)= 0.22799E-04
  rms(prec ) = 0.23882E-04
  weight for this iteration     100.00
  WARNING: grid for Broyden might be to small

 eigenvalues of (default mixing * dielectric matrix)
  average eigenvalue GAMMA=   1.6237
  8.2303  2.7994  2.2917  2.2917  1.6346  1.3996  1.0701  1.0701  1.0232  0.9129
  0.9129  0.6970  0.6970  0.6144  0.6362  0.6613  0.6613

 Free energy of the ion-electron system (eV)
  ---------------------------------------------------
  alpha Z        PSCENC =        49.60133871
  Ewald energy   TEWEN  =     -1198.27995408
  -Hartree energ DENC   =      -317.87744357
  -exchange      EXHF   =         0.00000000
  -V(xc)+E(xc)   XCENC  =        25.28295549
  PAW double counting   =      4129.14156622    -4044.87112276
  entropy T*S    EENTRO =        -0.00086646
  eigenvalues    EBANDS =        37.19402002
  atomic energy  EATOM  =      1251.08021953
  Solvation  Ediel_sol  =         0.00000000
  ---------------------------------------------------
  free energy    TOTEN  =       -68.72928691 eV

  energy without entropy =      -68.72842045  energy(sigma->0) =      -68.72885368


--------------------------------------------------------------------------------------------------------




--------------------------------------- Iteration      1(  23)  ---------------------------------------


    POTLOK:  cpu time    0.0150: real time    0.0143
    SETDIJ:  cpu time    0.2230: real time    0.2229
     EDDAV:  cpu time    1.9977: real time    1.9997
       DOS:  cpu time    0.0000: real time    0.0006
    --------------------------------------------
      LOOP:  cpu time    2.2357: real time    2.2377

 eigenvalue-minimisations  :  4528
 total energy-change (2. order) :-0.5574748E-08  (-0.6744852E-09)
 number of electron      40.0000000 magnetization      -0.0000904
 augmentation part       -0.7101811 magnetization       0.0001286

 Free energy of the ion-electron system (eV)
  ---------------------------------------------------
  alpha Z        PSCENC =        49.60133871
  Ewald energy   TEWEN  =     -1198.27995408
  -Hartree energ DENC   =      -317.87741229
  -exchange      EXHF   =         0.00000000
  -V(xc)+E(xc)   XCENC  =        25.28295387
  PAW double counting   =      4129.13077257    -4044.86033233
  entropy T*S    EENTRO =        -0.00086646
  eigenvalues    EBANDS =        37.19399358
  atomic energy  EATOM  =      1251.08021953
  Solvation  Ediel_sol  =         0.00000000
  ---------------------------------------------------
  free energy    TOTEN  =       -68.72928692 eV

  energy without entropy =      -68.72842046  energy(sigma->0) =      -68.72885369


--------------------------------------------------------------------------------------------------------




 average (electrostatic) potential at core
  the test charge radii are     0.6991  0.9892
  (the norm of the test charge is              1.0000)
       1 -46.9489       2 -46.6629       3 -47.0054       4 -47.0803       5 -47.7002
       6 -81.7758       7 -81.8631       8 -81.7874       9 -81.5054      10 -81.7832
 
 
 
 E-fermi :   8.0642     XC(G=0): -10.8814     alpha+bet :-14.5651


 spin component 1

 k-point     1 :       0.0000    0.0000    0.0000
  band No.  band energies     occupation 
      1      -9.7500      1.00000
      2      -7.1596      1.00000
      3      -5.8287      1.00000
      4      -4.8505      1.00000
      5      -2.8167      1.00000
      6      -1.3957      1.00000
      7      -0.5608      1.00000
      8      -0.0323      1.00000
      9       0.4008      1.00000
     10       1.4233      1.00000
     11       2.0567      1.00000
     12       3.5376      1.00000
     13       4.1205      1.00000
     14       4.7948      1.00000
     15       5.2777      1.00000
     16       5.4620      1.00000
     17       5.8202      1.00000
     18       6.0193      1.00000
     19       7.4592      1.00000
     20       8.8677      0.00000
     21      10.6479      0.00000
     22      10.8648      0.00000
     23      11.2261      0.00000
     24      11.5285      0.00000
     25      11.9010      0.00000
     26      12.3662      0.00000
     27      12.9122      0.00000
     28      13.2432      0.00000
     29      13.5915      0.00000
     30      13.6355      0.00000
     31      14.1198      0.00000
     32      14.3771      0.00000

 k-point     2 :       0.2500   -0.0000    0.0000
  band No.  band energies     occupation 
      1      -9.6111      1.00000
      2      -7.2131      1.00000
      3      -6.1180      1.00000
      4      -5.0408      1.00000
      5      -2.2608      1.00000
      6      -1.5680      1.00000
      7      -1.2411      1.00000
      8      -0.1135      1.00000
      9       0.5589      1.00000
     10       2.5387      1.00000
     11       3.0304      1.00000
     12       3.3902      1.00000
     13       4.1150      1.00000
     14       4.5952      1.00000
     15       4.8784      1.00000
     16       5.3595      1.00000
     17       5.5315      1.00000
     18       6.1991      1.00000
     19       7.6736      1.00000
     20       8.4960      0.00000
     21       9.7880      0.00000
     22      10.4882      0.00000
     23      11.1780      0.00000
     24      11.6252      0.00000
     25      11.9341      0.00000
     26      12.4494      0.00000
     27      12.6955      0.00000
     28      13.0254      0.00000
     29      13.4253      0.00000
     30      13.8337      0.00000
[...]
     20       7.2473      1.00000
     21       8.3642      0.00000
     22       8.8624      0.00000
     23       9.6890      0.00000
     24      10.2191      0.00000
     25      10.4757      0.00000
     26      11.6514      0.00000
     27      12.0340      0.00000
     28      12.6801      0.00000
     29      13.5028      0.00000
     30      13.6454      0.00000
     31      14.3466      0.00000
     32      15.2408      0.00000

 k-point    38 :       0.5000   -0.2857    0.3333
  band No.  band energies     occupation 
      1      -8.9699      1.00000
      2      -6.7295      1.00000
      3      -5.4791      1.00000
      4      -3.8583      1.00000
      5      -2.4882      1.00000
      6      -0.9699      1.00000
      7      -0.2326      1.00000
      8       0.0216      1.00000
      9       0.6313      1.00000
     10       1.3653      1.00000
     11       1.8959      1.00000
     12       2.3713      1.00000
     13       2.8821      1.00000
     14       3.4536      1.00000
     15       4.4495      1.00000
     16       5.1809      1.00000
     17       5.3777      1.00000
     18       5.6199      1.00000
     19       6.4348      1.00000
     20       7.0246      1.00000
     21       8.4169      0.00000
     22       8.9570      0.00000
     23       9.9439      0.00000
     24      10.3791      0.00000
     25      10.8577      0.00000
     26      11.3688      0.00000
     27      12.2412      0.00000
     28      13.1051      0.00000
     29      13.4232      0.00000
     30      14.0378      0.00000
     31      14.4698      0.00000
     32      15.2793      0.00000

 k-point    39 :      -0.2500   -0.2857    0.3333
  band No.  band energies     occupation 
      1      -9.1223      1.00000
      2      -6.6655      1.00000
      3      -5.0294      1.00000
      4      -3.8990      1.00000
      5      -2.4459      1.00000
      6      -1.4717      1.00000
      7      -0.3349      1.00000
      8       0.4197      1.00000
      9       1.0695      1.00000
     10       1.4222      1.00000
     11       1.7860      1.00000
     12       2.3188      1.00000
     13       2.6311      1.00000
     14       3.3205      1.00000
     15       4.0960      1.00000
     16       4.3997      1.00000
     17       5.0719      1.00000
     18       5.5379      1.00000
     19       6.0766      1.00000
     20       7.0603      1.00000
     21       8.2034      0.00000
     22       9.3403      0.00000
     23      10.0900      0.00000
     24      11.2451      0.00000
     25      11.7327      0.00000
     26      12.2120      0.00000
     27      12.9142      0.00000
     28      13.2938      0.00000
     29      14.0292      0.00000
     30      14.3810      0.00000
     31      14.8124      0.00000
     32      15.1801      0.00000

 k-point    40 :       0.0000   -0.1429    0.3333
  band No.  band energies     occupation 
      1      -9.5501      1.00000
      2      -7.2011      1.00000
      3      -5.4353      1.00000
      4      -4.3765      1.00000
      5      -2.7637      1.00000
      6      -1.6630      1.00000
      7      -0.9353      1.00000
      8       0.1285      1.00000
      9       0.8958      1.00000
     10       2.1154      1.00000
     11       2.6037      1.00000
     12       2.9414      1.00000
     13       3.5376      1.00000
     14       3.8187      1.00000
     15       4.2095      1.00000
     16       4.7690      1.00000
     17       5.3401      1.00000
     18       6.8562      1.00000
     19       7.2856      1.00000
     20       7.8484      1.00000
     21       9.2270      0.00000
     22       9.8774      0.00000
     23      11.1978      0.00000
     24      11.6866      0.00000
     25      12.3599      0.00000
     26      12.8871      0.00000
     27      13.1314      0.00000
     28      13.5480      0.00000
     29      13.7446      0.00000
     30      14.1752      0.00000
     31      14.2627      0.00000
     32      14.7245      0.00000

 k-point    41 :       0.2500   -0.1429    0.3333
  band No.  band energies     occupation 
      1      -9.3708      1.00000
      2      -7.2197      1.00000
      3      -6.0343      1.00000
      4      -4.3776      1.00000
      5      -2.4943      1.00000
      6      -1.6727      1.00000
      7      -0.9192      1.00000
      8      -0.2988      1.00000
      9       1.4460      1.00000
     10       2.2185      1.00000
     11       2.7293      1.00000
     12       3.2537      1.00000
     13       3.6845      1.00000
     14       3.9801      1.00000
     15       4.5893      1.00000
     16       4.9457      1.00000
     17       5.0940      1.00000
     18       6.7596      1.00000
     19       7.3367      1.00000
     20       8.0568      0.69942
     21       9.2234      0.00000
     22       9.7430      0.00000
     23      10.4345      0.00000
     24      11.1758      0.00000
     25      11.7083      0.00000
     26      12.1658      0.00000
     27      12.9619      0.00000
     28      13.0797      0.00000
     29      13.5688      0.00000
     30      13.9808      0.00000
     31      14.1681      0.00000
     32      14.6784      0.00000

 k-point    42 :       0.5000   -0.1429    0.3333
  band No.  band energies     occupation 
      1      -9.2915      1.00000
      2      -7.2690      1.00000
      3      -6.1527      1.00000
      4      -4.3308      1.00000
      5      -3.0446      1.00000
      6      -1.4116      1.00000
      7      -0.6503      1.00000
      8       0.4694      1.00000
      9       1.3528      1.00000
     10       1.9698      1.00000
     11       2.2077      1.00000
     12       2.8191      1.00000
     13       3.5095      1.00000
     14       4.4769      1.00000
     15       4.9067      1.00000
     16       5.2865      1.00000
     17       5.4435      1.00000
     18       6.8319      1.00000
     19       7.0188      1.00000
     20       7.6834      1.00000
     21       9.1592      0.00000
     22       9.6216      0.00000
     23      10.8102      0.00000
     24      11.3012      0.00000
     25      11.8129      0.00000
     26      11.9844      0.00000
     27      12.2799      0.00000
     28      13.1871      0.00000
     29      13.5201      0.00000
     30      13.9313      0.00000
     31      14.1419      0.00000
     32      14.4270      0.00000

 k-point    43 :      -0.2500   -0.1429    0.3333
  band No.  band energies     occupation 
      1      -9.4895      1.00000
      2      -7.1835      1.00000
      3      -5.7099      1.00000
      4      -4.3682      1.00000
      5      -2.7568      1.00000
      6      -1.7408      1.00000
      7      -0.8321      1.00000
      8       0.5557      1.00000
      9       1.2230      1.00000
     10       1.8546      1.00000
     11       2.3876      1.00000
     12       2.7839      1.00000
     13       3.5576      1.00000
     14       3.8334      1.00000
     15       4.4324      1.00000
     16       4.5436      1.00000
     17       5.5324      1.00000
     18       6.8291      1.00000
     19       7.1567      1.00000
     20       8.1222      0.00002
     21       9.5324      0.00000
     22      10.0996      0.00000
     23      10.9612      0.00000
     24      11.5353      0.00000
     25      11.9151      0.00000
     26      12.4282      0.00000
     27      12.8183      0.00000
     28      13.2104      0.00000
     29      13.8112      0.00000
     30      14.1029      0.00000
     31      14.3407      0.00000
     32      14.7679      0.00000


--------------------------------------------------------------------------------------------------------


 soft charge-density along one line, spin component           1
         0         1         2         3         4         5         6         7         8         9
 total charge-density along one line
 
 soft charge-density along one line, spin component           2
         0         1         2         3         4         5         6         7         8         9
 total charge-density along one line
 
 pseudopotential strength for first ion, spin component:           1
  9.528  12.655   0.003  -0.004  -0.001  -0.008   0.011   0.003
 12.655  16.806   0.004  -0.005  -0.001  -0.010   0.015   0.004
  0.003   0.004  -3.746   0.001  -0.000   7.339  -0.003   0.001
 -0.004  -0.005   0.001  -3.749   0.001  -0.003   7.344  -0.001
 -0.001  -0.001  -0.000   0.001  -3.745   0.001  -0.001   7.337
 -0.008  -0.010   7.339  -0.003   0.001 -16.479   0.004  -0.001
  0.011   0.015  -0.003   7.344  -0.001   0.004 -16.487   0.001
  0.003   0.004   0.001  -0.001   7.337  -0.001   0.001 -16.476
 pseudopotential strength for first ion, spin component:           2
  9.528  12.655   0.003  -0.004  -0.001  -0.008   0.011   0.003
 12.655  16.806   0.004  -0.005  -0.001  -0.010   0.015   0.004
  0.003   0.004  -3.746   0.001  -0.000   7.339  -0.003   0.001
 -0.004  -0.005   0.001  -3.749   0.001  -0.003   7.344  -0.001
 -0.001  -0.001  -0.000   0.001  -3.745   0.001  -0.001   7.337
 -0.008  -0.010   7.339  -0.003   0.001 -16.479   0.004  -0.001
  0.011   0.015  -0.003   7.344  -0.001   0.004 -16.487   0.001
  0.003   0.004   0.001  -0.001   7.337  -0.001   0.001 -16.476
 total augmentation occupancy for first ion, spin component:           1
  6.308  -2.574   0.143  -0.254  -0.079   0.026  -0.045  -0.012
 -2.574   1.140  -0.110   0.193   0.056  -0.015   0.026   0.006
  0.143  -0.110   1.440  -0.017   0.036   0.102  -0.008   0.003
 -0.254   0.193  -0.017   1.523  -0.043  -0.008   0.126  -0.000
 -0.079   0.056   0.036  -0.043   1.375   0.003  -0.000   0.095
  0.026  -0.015   0.102  -0.008   0.003   0.008  -0.001   0.000
 -0.045   0.026  -0.008   0.126  -0.000  -0.001   0.012   0.000
 -0.012   0.006   0.003  -0.000   0.095   0.000   0.000   0.007
 total augmentation occupancy for first ion, spin component:           2
 -0.000   0.000  -0.000  -0.000  -0.000   0.000  -0.000  -0.000
  0.000  -0.000  -0.000  -0.000   0.000  -0.000  -0.000   0.000
 -0.000  -0.000   0.000   0.000   0.000  -0.000  -0.000  -0.000
 -0.000  -0.000   0.000  -0.000   0.000  -0.000  -0.000   0.000
 -0.000   0.000   0.000   0.000  -0.000   0.000   0.000  -0.000
  0.000  -0.000  -0.000  -0.000   0.000  -0.000   0.000  -0.000
 -0.000  -0.000  -0.000  -0.000   0.000   0.000  -0.000  -0.000
 -0.000   0.000  -0.000   0.000  -0.000  -0.000  -0.000  -0.000


------------------------ aborting loop because EDIFF is reached ----------------------------------------


 


 total charge     
 
# of ion       s       p       d       tot
------------------------------------------
    1        0.848   1.648   0.000   2.496
    2        0.857   1.671   0.000   2.528
    3        0.859   1.703   0.000   2.562
    4        0.848   1.670   0.000   2.517
    5        0.868   1.708   0.000   2.576
    6        0.752   0.931   0.000   1.683
    7        0.781   0.807   0.000   1.588
    8        0.747   0.830   0.000   1.577
    9        0.756   0.939   0.000   1.695
   10        0.743   0.925   0.000   1.669
--------------------------------------------------
tot          8.061  12.831   0.000  20.891
 


 magnetization (x)
 
# of ion       s       p       d       tot
------------------------------------------
    1       -0.000  -0.000   0.000  -0.000
    2       -0.000  -0.000   0.000  -0.000
    3       -0.000  -0.000   0.000  -0.000
    4       -0.000  -0.000   0.000  -0.000
    5       -0.000   0.000   0.000  -0.000
    6       -0.000  -0.000   0.000  -0.000
    7       -0.000  -0.000   0.000  -0.000
    8       -0.000  -0.000   0.000  -0.000
    9       -0.000  -0.000   0.000  -0.000
   10       -0.000  -0.000   0.000  -0.000
--------------------------------------------------
tot         -0.000  -0.000   0.000  -0.000
 
    CHARGE:  cpu time    0.1850: real time    0.1854
    FORLOC:  cpu time    0.0010: real time    0.0010
    FORNL :  cpu time    0.4359: real time    0.4360
    STRESS:  cpu time    1.4638: real time    1.4662
    FORCOR:  cpu time    0.0140: real time    0.0130
    FORHAR:  cpu time    0.0020: real time    0.0021
    MIXING:  cpu time    0.0010: real time    0.0013
    OFIELD:  cpu time    0.0000: real time    0.0000

  FORCE on cell =-STRESS in cart. coord.  units (eV):
  Direction    XX          YY          ZZ          XY          YZ          ZX
  --------------------------------------------------------------------------------------
  Alpha Z    49.60134    49.60134    49.60134
  Ewald    -303.21237  -469.06370  -426.00623   -34.86616   -50.31294   -24.65370
  Hartree   151.21759   135.46273    31.19705     3.65046   -16.82967   -12.78843
  E(xc)    -138.99803  -139.54023  -138.69940    -0.11253    -0.17327    -0.15077
  Local    -359.50090  -187.39015  -113.02516    29.06528    64.11935    35.13846
  n-local   178.47346   174.17285   175.69754    -2.05935    -0.24207     1.76322
  augment   -30.67789   -30.17233   -30.76285     0.20274     0.06759    -0.08064
  Kinetic   452.98836   468.15791   454.65311     3.95268     3.81030     0.90195
  Fock        0.00000     0.00000     0.00000     0.00000     0.00000     0.00000
  -------------------------------------------------------------------------------------
  Total      -0.10843     1.22842     2.65540    -0.16687     0.43928     0.13009
  in kB      -1.48817    16.85912    36.44337    -2.29017     6.02884     1.78539
  external pressure =       17.27 kB  Pullay stress =        0.00 kB


 VOLUME and BASIS-vectors are now :
 -----------------------------------------------------------------------------
  energy-cutoff  :      560.00
  volume of cell :      116.74
      direct lattice vectors                 reciprocal lattice vectors
     5.325521711  0.000000000  0.000000000     0.187775030 -0.055770782  0.022854208
     0.873859685  2.942204182  0.000000000     0.000000000  0.339881238  0.013487081
    -0.994618805 -0.295650013  7.450529275     0.000000000  0.000000000  0.134218653

  length of vectors
     5.325521711  3.069233813  7.522437237     0.197210945  0.340148728  0.134218653


 FORCES acting on ions
    electron-ion (+dipol)            ewald-force                    non-local-force                 convergence-correction
 -----------------------------------------------------------------------------------------------
   0.356E+01 0.160E+02 -.109E+03   -.275E+01 -.181E+02 0.112E+03   -.750E+00 0.215E+01 -.273E+01   -.100E-06 0.397E-05 -.113E-04
   -.658E+02 0.225E+02 -.456E+02   0.686E+02 -.234E+02 0.496E+02   -.312E+01 0.930E+00 -.402E+01   -.133E-05 0.346E-05 -.132E-04
   0.782E+02 -.177E+02 -.743E+01   -.808E+02 0.178E+02 0.544E+01   0.300E+01 -.170E+00 0.152E+01   0.284E-05 0.220E-05 -.237E-04
   -.210E+01 -.771E+01 0.114E+03   0.267E+01 0.776E+01 -.117E+03   -.545E+00 -.980E-01 0.278E+01   0.441E-05 -.358E-05 0.892E-05
   -.109E+02 -.642E+01 0.350E+02   0.101E+02 0.679E+01 -.337E+02   0.232E+00 -.412E+00 -.848E+00   -.139E-04 0.164E-05 0.141E-06
   0.469E+02 -.130E+02 0.672E+02   -.454E+02 0.122E+02 -.695E+02   -.141E+01 0.738E+00 0.219E+01   0.131E-05 -.130E-06 0.423E-05
   -.356E+02 0.603E+01 0.649E+02   0.364E+02 -.593E+01 -.667E+02   -.962E+00 -.128E+00 0.177E+01   -.209E-05 0.121E-05 0.555E-05
   -.278E+02 0.958E+01 -.971E+02   0.296E+02 -.106E+02 0.953E+02   -.164E+01 0.979E+00 0.148E+01   0.249E-05 0.406E-06 0.387E-05
   0.327E+02 -.102E+02 -.717E+02   -.333E+02 0.107E+02 0.727E+02   0.569E+00 -.281E+00 -.970E+00   -.176E-05 0.711E-07 0.497E-05
   -.152E+02 -.452E+01 0.510E+02   0.148E+02 0.286E+01 -.487E+02   0.473E+00 0.155E+01 -.210E+01   0.595E-05 -.164E-05 -.632E-05
 -----------------------------------------------------------------------------------------------
   0.415E+01 -.527E+01 0.939E+00   -.426E-13 -.111E-13 0.355E-13   -.415E+01 0.527E+01 -.939E+00   -.213E-05 0.761E-05 -.268E-04
 
 
 POSITION                                       TOTAL-FORCE (eV/Angst)
 -----------------------------------------------------------------------------------
      3.61551      0.86024      7.13011         0.064845      0.095411      0.060369
      0.54508      0.60430      5.55500        -0.270334      0.044034      0.065507
      3.49265      1.18042      5.66935         0.485413     -0.091080     -0.471338
      4.65288      1.30126      3.42740         0.028257     -0.050376      0.085755
      4.63272      1.06536      4.89774        -0.562165     -0.039213      0.491416
      3.36952      0.06781      2.76278         0.139900     -0.013834     -0.103871
      1.13324      1.08767      2.63975        -0.101595     -0.029665     -0.018200
      1.19024      0.76220      0.07140         0.157227     -0.021296     -0.362961
      4.27895      2.85089      0.45087         0.040041      0.209116     -0.003834
      1.87821      1.79765      4.94321         0.018410     -0.103097      0.257158
 -----------------------------------------------------------------------------------
    total drift:                               -0.000137     -0.000200      0.000080


--------------------------------------------------------------------------------------------------------



  FREE ENERGIE OF THE ION-ELECTRON SYSTEM (eV)
  ---------------------------------------------------
  free  energy   TOTEN  =       -68.72928692 eV

  energy  without entropy=      -68.72842046  energy(sigma->0) =      -68.72885369
 


--------------------------------------------------------------------------------------------------------


    POTLOK:  cpu time    0.2380: real time    0.2379


--------------------------------------------------------------------------------------------------------


 writing wavefunctions
     LOOP+:  cpu time   76.1314: real time   76.2453
    4ORBIT:  cpu time    0.0000: real time    0.0000
 


 total charge     
 
# of ion       s       p       d       tot
------------------------------------------
    1        0.848   1.648   0.000   2.496
    2        0.857   1.671   0.000   2.528
    3        0.859   1.703   0.000   2.562
    4        0.848   1.670   0.000   2.517
    5        0.868   1.708   0.000   2.576
    6        0.752   0.931   0.000   1.683
    7        0.781   0.807   0.000   1.588
    8        0.747   0.830   0.000   1.577
    9        0.756   0.939   0.000   1.695
   10        0.743   0.925   0.000   1.669
--------------------------------------------------
tot          8.061  12.831   0.000  20.891
 


 magnetization (x)
 
# of ion       s       p       d       tot
------------------------------------------
    1       -0.000  -0.000   0.000  -0.000
    2       -0.000  -0.000   0.000  -0.000
    3       -0.000  -0.000   0.000  -0.000
    4       -0.000  -0.000   0.000  -0.000
    5       -0.000   0.000   0.000  -0.000
    6       -0.000  -0.000   0.000  -0.000
    7       -0.000  -0.000   0.000  -0.000
    8       -0.000  -0.000   0.000  -0.000
    9       -0.000  -0.000   0.000  -0.000
   10       -0.000  -0.000   0.000  -0.000
--------------------------------------------------
tot         -0.000  -0.000   0.000  -0.000
 

 total amount of memory used by VASP MPI-rank0    67977. kBytes
=======================================================================

   base      :      30000. kBytes
   nonl-proj :      20027. kBytes
   fftplans  :       2045. kBytes
   grid      :       5893. kBytes
   one-center:         61. kBytes
   wavefun   :       9951. kBytes
 
  
  
 General timing and accounting informations for this job:
 ========================================================
  
                  Total CPU time used (sec):       78.458
                            User time (sec):       77.018
                          System time (sec):        1.440
                         Elapsed time (sec):       78.600
  
                   Maximum memory used (kb):       99312.
                   Average memory used (kb):           0.
  
                          Minor page faults:        42179
                          Major page faults:            0
                 Voluntary context switches:         3018
