 vasp.5.4.4.18Apr17-6-g9f103f2a35 (build Sep 20 2017 14:02:52) complex          
  
 executed on             LinuxIFC date 2018.08.08  19:04:59
 running on   16 total cores
 distrk:  each k-point on   16 cores,    1 groups
 distr:  one band on NCORES_PER_BAND=   1 cores,   16 groups


--------------------------------------------------------------------------------------------------------


 INCAR:
 POTCAR:    PAW_PBE C 08Apr2002                   
 POTCAR:    PAW_PBE Si 05Jan2001                  

 ----------------------------------------------------------------------------- 
|                                                                             |
|           W    W    AA    RRRRR   N    N  II  N    N   GGGG   !!!           |
|           W    W   A  A   R    R  NN   N  II  NN   N  G    G  !!!           |
|           W    W  A    A  R    R  N N  N  II  N N  N  G       !!!           |
|           W WW W  AAAAAA  RRRRR   N  N N  II  N  N N  G  GGG   !            |
|           WW  WW  A    A  R   R   N   NN  II  N   NN  G    G                |
|           W    W  A    A  R    R  N    N  II  N    N   GGGG   !!!           |
|                                                                             |
|      For optimal performance we recommend to set                            |
|        NCORE= 4 - approx SQRT( number of cores)                             |
|      NCORE specifies how many cores store one orbital (NPAR=cpu/NCORE).     |
|      This setting can  greatly improve the performance of VASP for DFT.     |
|      The default,   NCORE=1            might be grossly inefficient         |
|      on modern multi-core architectures or massively parallel machines.     |
|      Do your own testing !!!!                                               |
|      Unfortunately you need to use the default for GW and RPA calculations. |
|      (for HF NCORE is supported but not extensively tested yet)             |
|                                                                             |
 ----------------------------------------------------------------------------- 

 POTCAR:    PAW_PBE C 08Apr2002                   
   VRHFIN =C: s2p2                                                              
   LEXCH  = PE                                                                  
   EATOM  =   147.1560 eV,   10.8157 Ry                                         
                                                                                
   TITEL  = PAW_PBE C 08Apr2002                                                 
   LULTRA =        F    use ultrasoft PP ?                                      
   IUNSCR =        1    unscreen: 0-lin 1-nonlin 2-no                           
   RPACOR =    1.200    partial core radius                                     
   POMASS =   12.011; ZVAL   =    4.000    mass and valenz                      
   RCORE  =    1.500    outmost cutoff radius                                   
   RWIGS  =    1.630; RWIGS  =    0.863    wigner-seitz radius (au A)           
   ENMAX  =  400.000; ENMIN  =  300.000 eV                                      
   ICORE  =        2    local potential                                         
   LCOR   =        T    correct aug charges                                     
   LPAW   =        T    paw PP                                                  
   EAUG   =  644.873                                                            
   DEXC   =    0.000                                                            
   RMAX   =    1.529    core radius for proj-oper                               
   RAUG   =    1.300    factor for augmentation sphere                          
   RDEP   =    1.501    radius for radial grids                                 
   RDEPT  =    1.300    core radius for aug-charge                              
                                                                                
   Atomic configuration                                                         
    4 entries                                                                   
     n  l   j            E        occ.                                          
     1  0  0.50      -273.3789   2.0000                                         
     2  0  0.50       -13.7508   2.0000                                         
     2  1  0.50        -5.2854   2.0000                                         
     3  2  1.50        -5.4423   0.0000                                         
   Description                                                                  
     l       E           TYP  RCUT    TYP  RCUT                                 
     0    -13.7508458     23  1.200                                             
     0     -8.2022199     23  1.200                                             
     1     -5.2854383     23  1.500                                             
     1     34.0145650     23  1.500                                             
     2     -5.4423304      7  1.500                                             
  local pseudopotential read in
  partial core-charges read in
  partial kinetic energy density read in
  atomic valenz-charges read in
  non local Contribution for L=           0  read in
    real space projection operators read in
  non local Contribution for L=           0  read in
    real space projection operators read in
  non local Contribution for L=           1  read in
    real space projection operators read in
  non local Contribution for L=           1  read in
    real space projection operators read in
    PAW grid and wavefunctions read in
 
   number of l-projection  operators is LMAX  =           4
   number of lm-projection operators is LMMAX =           8
 
 POTCAR:    PAW_PBE Si 05Jan2001                  
   VRHFIN =Si: s2p2                                                             
   LEXCH  = PE                                                                  
   EATOM  =   103.0669 eV,    7.5752 Ry                                         
                                                                                
   TITEL  = PAW_PBE Si 05Jan2001                                                
   LULTRA =        F    use ultrasoft PP ?                                      
   IUNSCR =        1    unscreen: 0-lin 1-nonlin 2-no                           
   RPACOR =    1.500    partial core radius                                     
   POMASS =   28.085; ZVAL   =    4.000    mass and valenz                      
   RCORE  =    1.900    outmost cutoff radius                                   
   RWIGS  =    2.480; RWIGS  =    1.312    wigner-seitz radius (au A)           
   ENMAX  =  245.345; ENMIN  =  184.009 eV                                      
   ICORE  =        2    local potential                                         
   LCOR   =        T    correct aug charges                                     
   LPAW   =        T    paw PP                                                  
   EAUG   =  322.069                                                            
   DEXC   =    0.000                                                            
   RMAX   =    1.950    core radius for proj-oper                               
   RAUG   =    1.300    factor for augmentation sphere                          
   RDEP   =    1.993    radius for radial grids                                 
   RDEPT  =    1.837    core radius for aug-charge                              
                                                                                
   Atomic configuration                                                         
    6 entries                                                                   
     n  l   j            E        occ.                                          
     1  0  0.50     -1785.8828   2.0000                                         
     2  0  0.50      -139.4969   2.0000                                         
     2  1  1.50       -95.5546   6.0000                                         
     3  0  0.50       -10.8127   2.0000                                         
     3  1  0.50        -4.0811   2.0000                                         
     3  2  1.50        -4.0817   0.0000                                         
   Description                                                                  
     l       E           TYP  RCUT    TYP  RCUT                                 
     0    -10.8127223     23  1.900                                             
     0     -7.6451159     23  1.900                                             
     1     -4.0811372     23  1.900                                             
     1      2.4879257     23  1.900                                             
     2     -4.0817478      7  1.900                                             
  local pseudopotential read in
  partial core-charges read in
  partial kinetic energy density read in
  atomic valenz-charges read in
  non local Contribution for L=           0  read in
    real space projection operators read in
  non local Contribution for L=           0  read in
    real space projection operators read in
  non local Contribution for L=           1  read in
    real space projection operators read in
  non local Contribution for L=           1  read in
    real space projection operators read in
    PAW grid and wavefunctions read in
 
   number of l-projection  operators is LMAX  =           4
   number of lm-projection operators is LMMAX =           8
 
  PAW_PBE C 08Apr2002                   :
 energy of atom  1       EATOM= -147.1560
 kinetic energy error for atom=    0.0065 (will be added to EATOM!!)
  PAW_PBE Si 05Jan2001                  :
 energy of atom  2       EATOM= -103.0669
 kinetic energy error for atom=    0.0004 (will be added to EATOM!!)
 
 
 POSCAR:  C Si                                   
  positions in direct lattice
  No initial velocities read in
 exchange correlation table for  LEXCH =        8
   RHO(1)=    0.500       N(1)  =     2000
   RHO(2)=  100.500       N(2)  =     4000
 


--------------------------------------------------------------------------------------------------------


 ion  position               nearest neighbor table
   1  0.566  0.427  0.522-   5 1.83   6 1.88   7 2.09   5 2.16
   2  0.037  0.288  0.220-   4 1.22   3 1.76   8 1.91   5 1.92   7 2.20   7 2.60
   3  0.620  0.595  0.052-   2 1.76   6 2.07   8 2.07
   4  0.041  0.990  0.332-   2 1.22   7 1.75   7 1.93   5 2.25   8 2.47
   5  0.022  0.270  0.476-   1 1.83   2 1.92   1 2.16   6 2.23   4 2.25   7 2.60   7 2.70   6 2.98

   6  0.428  0.073  0.781-   1 1.88   3 2.07   5 2.23   8 2.69   5 2.98   8 3.13
   7  0.543  0.897  0.445-   4 1.75   4 1.93   1 2.09   2 2.20   5 2.60   2 2.60   5 2.70   8 2.97

   8  0.248  0.363  0.974-   2 1.91   3 2.07   4 2.47   6 2.69   7 2.97   6 3.13
 
  LATTYP: Found a triclinic cell.
 ALAT       =     5.8443367415
 B/A-ratio  =     0.8662555557
 C/A-ratio  =     1.4521812207
 COS(alpha) =     0.0001490378
 COS(beta)  =     0.3978852153
 COS(gamma) =     0.8147900739
  
  Lattice vectors:
  
 A1 = (  -2.9539548153,   5.0428586037,   0.0000000000)
 A2 = (   0.4476591927,   5.0428586037,   0.0000000000)
 A3 = (  -5.7999347513,   0.5161354014,  -6.1744750603)


Analysis of symmetry for initial positions (statically):
=====================================================================
 Subroutine PRICEL returns:
 Original cell was already a primitive cell.
 

 Routine SETGRP: Setting up the symmetry group for a 
 triclinic supercell.


 Subroutine GETGRP returns: Found  1 space group operations
 (whereof  1 operations were pure point group operations)
 out of a pool of  2 trial point group operations.


The static configuration has the point symmetry C_1 .


Analysis of symmetry for dynamics (positions and initial velocities):
=====================================================================
 Subroutine PRICEL returns:
 Original cell was already a primitive cell.
 

 Routine SETGRP: Setting up the symmetry group for a 
 triclinic supercell.


 Subroutine GETGRP returns: Found  1 space group operations
 (whereof  1 operations were pure point group operations)
 out of a pool of  2 trial point group operations.


The dynamic configuration has the point symmetry C_1 .


Analysis of structural, dynamic, and magnetic symmetry:
=====================================================================
 Subroutine PRICEL returns:
 Original cell was already a primitive cell.
 

 Routine SETGRP: Setting up the symmetry group for a 
 triclinic supercell.


 Subroutine GETGRP returns: Found  1 space group operations
 (whereof  1 operations were pure point group operations)
 out of a pool of  2 trial point group operations.


The magnetic configuration has the point symmetry C_1 .


 Subroutine INISYM returns: Found  1 space group operations
 (whereof  1 operations are pure point group operations),
 and found     1 'primitive' translations

 
 
 KPOINTS: Automatic mesh                          

Automatic generation of k-mesh.
 generate k-points for:    3    2    2
Space group operators:
 irot       det(A)        alpha          n_x          n_y          n_z        tau_x        tau_y        tau_z
    1     1.000000     0.000000     1.000000     0.000000     0.000000     0.000000     0.000000     0.000000
 
 Subroutine IBZKPT returns following result:
 ===========================================
 
 Found      8 irreducible k-points:
 
 Following reciprocal coordinates:
            Coordinates               Weight
  0.000000  0.000000  0.000000      1.000000
  0.333333  0.000000  0.000000      2.000000
  0.000000  0.500000  0.000000      1.000000
  0.333333  0.500000 -0.000000      2.000000
  0.000000  0.000000  0.500000      1.000000
  0.333333  0.000000  0.500000      2.000000
  0.000000  0.500000  0.500000      1.000000
  0.333333  0.500000  0.500000      2.000000
 
 Following cartesian coordinates:
            Coordinates               Weight
  0.000000  0.000000  0.000000      1.000000
  0.097993 -0.008699  0.015196      2.000000
  0.000000  0.099150 -0.072690      1.000000
  0.097993  0.090451 -0.057495      2.000000
  0.000000  0.000000  0.080979      1.000000
  0.097993 -0.008699  0.096174      2.000000
  0.000000  0.099150  0.008288      1.000000
  0.097993  0.090451  0.023484      2.000000
 


--------------------------------------------------------------------------------------------------------




 Dimension of arrays:
   k-points           NKPTS =      8   k-points in BZ     NKDIM =      8   number of bands    NBANDS=     32
   number of dos      NEDOS =    301   number of ions     NIONS =      8
   non local maximal  LDIM  =      4   non local SUM 2l+1 LMDIM =      8
   total plane-waves  NPLWV =  67200
   max r-space proj   IRMAX =      1   max aug-charges    IRDMAX=  59590
   dimension x,y,z NGX =    28 NGY =   40 NGZ =   60
   dimension x,y,z NGXF=    40 NGYF=   56 NGZF=   84
   support grid    NGXF=    80 NGYF=  112 NGZF=  168
   ions per type =               4   4
   NGX,Y,Z   is equivalent  to a cutoff of  13.68, 13.13, 12.99 a.u.
   NGXF,Y,Z  is equivalent  to a cutoff of  19.55, 18.39, 18.19 a.u.

 SYSTEM =  TEST                                    
 POSCAR =   C Si                                   

 Startparameter for this run:
   NWRITE =      2    write-flag & timer
   PREC   = high      normal or accurate (medium, high low for compatibility)
   ISTART =      0    job   : 0-new  1-cont  2-samecut
   ICHARG =      2    charge: 1-file 2-atom 10-const
   ISPIN  =      2    spin polarized calculation?
   LNONCOLLINEAR =      F non collinear calculations
   LSORBIT =      F    spin-orbit coupling
   INIWAV =      1    electr: 0-lowe 1-rand  2-diag
   LASPH  =      T    aspherical Exc in radial PAW
   METAGGA=      F    non-selfconsistent MetaGGA calc.

 Electronic Relaxation 1
   ENCUT  =  560.0 eV  41.16 Ry    6.42 a.u.   6.56  9.77 14.81*2*pi/ulx,y,z
   ENINI  =  560.0     initial cutoff
   ENAUG  =  644.9 eV  augmentation charge cutoff
   NELM   =    100;   NELMIN=  8; NELMDL= -5     # of ELM steps 
   EDIFF  = 0.1E-07   stopping-criterion for ELM
   LREAL  =      F    real-space projection
   NLSPLINE    = F    spline interpolate recip. space projectors
   LCOMPAT=      F    compatible to vasp.4.4
   GGA_COMPAT  = T    GGA compatible to vasp.4.4-vasp.4.6
   LMAXPAW     = -100 max onsite density
   LMAXMIX     =    4 max onsite mixed and CHGCAR
   VOSKOWN=      0    Vosko Wilk Nusair interpolation
   ROPT   =    0.00000   0.00000
 Ionic relaxation
   EDIFFG = -.1E-04   stopping-criterion for IOM
   NSW    =      0    number of steps for IOM
   NBLOCK =      1;   KBLOCK =      1    inner block; outer block 
   IBRION =     -1    ionic relax: 0-MD 1-quasi-New 2-CG
   NFREE  =      0    steps in history (QN), initial steepest desc. (CG)
   ISIF   =      2    stress and relaxation
   IWAVPR =     10    prediction:  0-non 1-charg 2-wave 3-comb
   ISYM   =      2    0-nonsym 1-usesym 2-fastsym
   LCORR  =      T    Harris-Foulkes like correction to forces

   POTIM  = 0.5000    time-step for ionic-motion
   TEIN   =    0.0    initial temperature
   TEBEG  =    0.0;   TEEND  =   0.0 temperature during run
   SMASS  =  -3.00    Nose mass-parameter (am)
   estimated Nose-frequenzy (Omega)   =  0.10E-29 period in steps =****** mass=  -0.264E-27a.u.
   SCALEE = 1.0000    scale energy and forces
   NPACO  =    256;   APACO  = 16.0  distance and # of slots for P.C.
   PSTRESS=    0.0 pullay stress

  Mass of Ions in am
   POMASS =  12.01 28.09
  Ionic Valenz
   ZVAL   =   4.00  4.00
  Atomic Wigner-Seitz radii
   RWIGS  =  -1.00 -1.00
  virtual crystal weights 
   VCA    =   1.00  1.00
   NELECT =      32.0000    total number of electrons
   NUPDOWN=      -1.0000    fix difference up-down

 DOS related values:
   EMIN   =  10.00;   EMAX   =-10.00  energy-range for DOS
   EFERMI =   0.00
   ISMEAR =     0;   SIGMA  =   0.02  broadening in eV -4-tet -1-fermi 0-gaus

 Electronic relaxation 2 (details)
   IALGO  =     38    algorithm
   LDIAG  =      T    sub-space diagonalisation (order eigenvalues)
   LSUBROT=      F    optimize rotation matrix (better conditioning)
   TURBO    =      0    0=normal 1=particle mesh
   IRESTART =      0    0=no restart 2=restart with 2 vectors
   NREBOOT  =      0    no. of reboots
   NMIN     =      0    reboot dimension
   EREF     =   0.00    reference energy to select bands
   IMIX   =      4    mixing-type and parameters
     AMIX     =   0.40;   BMIX     =  1.00
     AMIX_MAG =   1.60;   BMIX_MAG =  1.00
     AMIN     =   0.10
     WC   =   100.;   INIMIX=   1;  MIXPRE=   1;  MAXMIX= -45

 Intra band minimization:
   WEIMIN = 0.0000     energy-eigenvalue tresh-hold
   EBREAK =  0.78E-10  absolut break condition
   DEPER  =   0.30     relativ break condition  

   TIME   =   0.40     timestep for ELM

  volume/ion in A,a.u.               =      13.24        89.34
  Fermi-wavevector in a.u.,A,eV,Ry     =   1.098510  2.075884 16.418494  1.206725
  Thomas-Fermi vector in A             =   2.234889
 
 Write flags
   LWAVE        =      T    write WAVECAR
   LDOWNSAMPLE  =      F    k-point downsampling of WAVECAR
   LCHARG       =      T    write CHGCAR
   LVTOT        =      F    write LOCPOT, total local potential
   LVHAR        =      F    write LOCPOT, Hartree potential only
   LELF         =      F    write electronic localiz. function (ELF)
   LORBIT       =     11    0 simple, 1 ext, 2 COOP (PROOUT), +10 PAW based schemes


 Dipole corrections
   LMONO  =      F    monopole corrections only (constant potential shift)
   LDIPOL =      F    correct potential (dipole corrections)
   IDIPOL =      0    1-x, 2-y, 3-z, 4-all directions 
   EPSILON=  1.0000000 bulk dielectric constant

 Exchange correlation treatment:
   GGA     =    --    GGA type
   LEXCH   =     8    internal setting for exchange type
   VOSKOWN=      0    Vosko Wilk Nusair interpolation
   LHFCALC =     F    Hartree Fock is set to
   LHFONE  =     F    Hartree Fock one center treatment
   AEXX    =    0.0000 exact exchange contribution

 Linear response parameters
   LEPSILON=     F    determine dielectric tensor
   LRPA    =     F    only Hartree local field effects (RPA)
   LNABLA  =     F    use nabla operator in PAW spheres
   LVEL    =     F    velocity operator in full k-point grid
   LINTERFAST=   F  fast interpolation
   KINTER  =     0    interpolate to denser k-point grid
   CSHIFT  =0.1000    complex shift for real part using Kramers Kronig
   OMEGAMAX=  -1.0    maximum frequency
   DEG_THRESHOLD= 0.2000000E-02 threshold for treating states as degnerate
   RTIME   =   -0.100 relaxation time in fs
  (WPLASMAI=    0.000 imaginary part of plasma frequency in eV, 0.658/RTIME)
   DFIELD  = 0.0000000 0.0000000 0.0000000 field for delta impulse in time
 
 Orbital magnetization related:
   ORBITALMAG=     F  switch on orbital magnetization
   LCHIMAG   =     F  perturbation theory with respect to B field
   DQ        =  0.001000  dq finite difference perturbation B field
   LLRAUG    =     F  two centre corrections for induced B field



--------------------------------------------------------------------------------------------------------


 Static calculation
 charge density and potential will be updated during run
 spin polarized calculation
 Variant of blocked Davidson
 Davidson routine will perform the subspace rotation
 perform sub-space diagonalisation
    after iterative eigenvector-optimisation
 modified Broyden-mixing scheme, WC =      100.0
 initial mixing is a Kerker type mixing with AMIX =  0.4000 and BMIX =      1.0000
 Hartree-type preconditioning will be used
 using additional bands           16
 reciprocal scheme for non local part
 use partial core corrections
 calculate Harris-corrections to forces 
   (improved forces if not selfconsistent)
 use gradient corrections 
 use of overlap-Matrix (Vanderbilt PP)
 Gauss-broadening in eV      SIGMA  =   0.02


--------------------------------------------------------------------------------------------------------


  energy-cutoff  :      560.00
  volume of cell :      105.92
      direct lattice vectors                 reciprocal lattice vectors
     3.401614008  0.000000000  0.000000000     0.293978093 -0.026096706  0.045587164
     0.447659193  5.042858604  0.000000000     0.000000000  0.198300226 -0.145380818
    -0.555634072  4.526723202  6.174475060     0.000000000  0.000000000  0.161957088

  length of vectors
     3.401614008  5.062689172  7.676203127     0.298634135  0.245883228  0.161957088


 
 k-points in units of 2pi/SCALE and weight: Automatic mesh                          
   0.00000000  0.00000000  0.00000000       0.083
   0.09799270 -0.00869890  0.01519572       0.167
   0.00000000  0.09915011 -0.07269041       0.083
   0.09799270  0.09045121 -0.05749469       0.167
   0.00000000  0.00000000  0.08097854       0.083
   0.09799270 -0.00869890  0.09617427       0.167
   0.00000000  0.09915011  0.00828814       0.083
   0.09799270  0.09045121  0.02348386       0.167
 
 k-points in reciprocal lattice and weights: Automatic mesh                          
   0.00000000  0.00000000  0.00000000       0.083
   0.33333333  0.00000000  0.00000000       0.167
   0.00000000  0.50000000  0.00000000       0.083
   0.33333333  0.50000000 -0.00000000       0.167
   0.00000000  0.00000000  0.50000000       0.083
   0.33333333  0.00000000  0.50000000       0.167
   0.00000000  0.50000000  0.50000000       0.083
   0.33333333  0.50000000  0.50000000       0.167
 
 position of ions in fractional coordinates (direct lattice) 
   0.56562938  0.42662352  0.52206452
   0.03658259  0.28783604  0.22019910
   0.62001663  0.59466463  0.05239676
   0.04134616  0.99029703  0.33185709
   0.02203513  0.26952296  0.47634273
   0.42819412  0.07329623  0.78086155
   0.54262668  0.89745688  0.44511666
   0.24847157  0.36342990  0.97394436
 
 position of ions in cartesian coordinates  (Angst):
   1.82495793  4.51464364  3.22347434
   0.13094218  2.44829681  1.35961385
   2.34615090  3.23599528  0.32352249
   0.39956813  6.49615312  2.04904335
  -0.06906283  3.51543787  2.94116632
   1.05548955  3.90436664  4.82141018
   2.00023937  6.54066810  2.74836173
   0.46674045  6.24150209  6.01359513
 


--------------------------------------------------------------------------------------------------------


 k-point  1 :   0.0000 0.0000 0.0000  plane waves:    3183
 k-point  2 :   0.3333 0.0000 0.0000  plane waves:    3182
 k-point  3 :   0.0000 0.5000 0.0000  plane waves:    3204
 k-point  4 :   0.3333 0.5000-0.0000  plane waves:    3188
 k-point  5 :   0.0000 0.0000 0.5000  plane waves:    3194
 k-point  6 :   0.3333 0.0000 0.5000  plane waves:    3197
 k-point  7 :   0.0000 0.5000 0.5000  plane waves:    3186
 k-point  8 :   0.3333 0.5000 0.5000  plane waves:    3185

 maximum and minimum number of plane-waves per node :      3204     3182

 maximum number of plane-waves:      3204
 maximum index in each direction: 
   IXMAX=    6   IYMAX=    9   IZMAX=   14
   IXMIN=   -6   IYMIN=  -10   IZMIN=  -15


 serial   3D FFT for wavefunctions
 parallel 3D FFT for charge:
    minimum data exchange during FFTs selected (reduces bandwidth)


 total amount of memory used by VASP MPI-rank0    44072. kBytes
=======================================================================

   base      :      30000. kBytes
   nonl-proj :       3704. kBytes
   fftplans  :       2078. kBytes
   grid      :       6562. kBytes
   one-center:         49. kBytes
   wavefun   :       1679. kBytes
 
     INWAV:  cpu time    0.0000: real time    0.0001
 Broyden mixing: mesh for mixing (old mesh)
   NGX = 13   NGY = 19   NGZ = 29
  (NGX  = 40   NGY  = 56   NGZ  = 84)
  gives a total of   7163 points

 initial charge density was supplied:
 charge density of overlapping atoms calculated
 number of electron      32.0000000 magnetization       8.0000000
 keeping initial charge density in first step


--------------------------------------------------------------------------------------------------------


 Maximum index for augmentation-charges         3780 (set IRDMAX)


--------------------------------------------------------------------------------------------------------


 First call to EWALD:  gamma=   0.375
 Maximum number of real-space cells 4x 3x 2
 Maximum number of reciprocal cells 2x 3x 4

    FEWALD:  cpu time    0.0010: real time    0.0015


--------------------------------------- Iteration      1(   1)  ---------------------------------------


    POTLOK:  cpu time    0.0230: real time    0.0234
    SETDIJ:  cpu time    0.2690: real time    0.2687
     EDDAV:  cpu time    0.4709: real time    0.4725
       DOS:  cpu time    0.0000: real time    0.0005
    --------------------------------------------
      LOOP:  cpu time    0.7629: real time    0.7651

 eigenvalue-minimisations  :  1024
 total energy-change (2. order) : 0.7789917E+02  (-0.1516666E+04)
 number of electron      32.0000000 magnetization       8.0000000
 augmentation part       32.0000000 magnetization       8.0000000

 Free energy of the ion-electron system (eV)
  ---------------------------------------------------
  alpha Z        PSCENC =        34.98916692
  Ewald energy   TEWEN  =      -887.29291169
  -Hartree energ DENC   =      -226.50935153
  -exchange      EXHF   =         0.00000000
  -V(xc)+E(xc)   XCENC  =        17.04933542
  PAW double counting   =       785.71187468     -717.55646816
  entropy T*S    EENTRO =        -0.00045619
  eigenvalues    EBANDS =        70.64380597
  atomic energy  EATOM  =      1000.86417562
  Solvation  Ediel_sol  =         0.00000000
  ---------------------------------------------------
  free energy    TOTEN  =        77.89917105 eV

  energy without entropy =       77.89962724  energy(sigma->0) =       77.89939914


--------------------------------------------------------------------------------------------------------




--------------------------------------- Iteration      1(   2)  ---------------------------------------


     EDDAV:  cpu time    0.6349: real time    0.6358
       DOS:  cpu time    0.0010: real time    0.0004
    --------------------------------------------
      LOOP:  cpu time    0.6359: real time    0.6362

 eigenvalue-minimisations  :  1472
 total energy-change (2. order) :-0.1217268E+03  (-0.1087978E+03)
 number of electron      32.0000000 magnetization       8.0000000
 augmentation part       32.0000000 magnetization       8.0000000

 Free energy of the ion-electron system (eV)
  ---------------------------------------------------
  alpha Z        PSCENC =        34.98916692
  Ewald energy   TEWEN  =      -887.29291169
  -Hartree energ DENC   =      -226.50935153
  -exchange      EXHF   =         0.00000000
  -V(xc)+E(xc)   XCENC  =        17.04933542
  PAW double counting   =       785.71187468     -717.55646816
  entropy T*S    EENTRO =        -0.00174991
  eigenvalues    EBANDS =       -51.08174922
  atomic energy  EATOM  =      1000.86417562
  Solvation  Ediel_sol  =         0.00000000
  ---------------------------------------------------
  free energy    TOTEN  =       -43.82767786 eV

  energy without entropy =      -43.82592795  energy(sigma->0) =      -43.82680291


--------------------------------------------------------------------------------------------------------




--------------------------------------- Iteration      1(   3)  ---------------------------------------


     EDDAV:  cpu time    0.5889: real time    0.5902
       DOS:  cpu time    0.0000: real time    0.0004
    --------------------------------------------
      LOOP:  cpu time    0.5889: real time    0.5906

 eigenvalue-minimisations  :  1360
 total energy-change (2. order) :-0.6447323E+01  (-0.6404485E+01)
 number of electron      32.0000000 magnetization       8.0000000
 augmentation part       32.0000000 magnetization       8.0000000

 Free energy of the ion-electron system (eV)
  ---------------------------------------------------
  alpha Z        PSCENC =        34.98916692
  Ewald energy   TEWEN  =      -887.29291169
  -Hartree energ DENC   =      -226.50935153
  -exchange      EXHF   =         0.00000000
  -V(xc)+E(xc)   XCENC  =        17.04933542
  PAW double counting   =       785.71187468     -717.55646816
  entropy T*S    EENTRO =        -0.00094892
  eigenvalues    EBANDS =       -57.52987339
  atomic energy  EATOM  =      1000.86417562
  Solvation  Ediel_sol  =         0.00000000
  ---------------------------------------------------
  free energy    TOTEN  =       -50.27500104 eV

  energy without entropy =      -50.27405212  energy(sigma->0) =      -50.27452658


--------------------------------------------------------------------------------------------------------




--------------------------------------- Iteration      1(   4)  ---------------------------------------


     EDDAV:  cpu time    0.6139: real time    0.6144
       DOS:  cpu time    0.0000: real time    0.0004
    --------------------------------------------
      LOOP:  cpu time    0.6139: real time    0.6148

 eigenvalue-minimisations  :  1424
 total energy-change (2. order) :-0.7389772E-01  (-0.7388819E-01)
 number of electron      32.0000000 magnetization       8.0000000
 augmentation part       32.0000000 magnetization       8.0000000

 Free energy of the ion-electron system (eV)
  ---------------------------------------------------
  alpha Z        PSCENC =        34.98916692
  Ewald energy   TEWEN  =      -887.29291169
  -Hartree energ DENC   =      -226.50935153
  -exchange      EXHF   =         0.00000000
  -V(xc)+E(xc)   XCENC  =        17.04933542
  PAW double counting   =       785.71187468     -717.55646816
  entropy T*S    EENTRO =        -0.00094842
  eigenvalues    EBANDS =       -57.60377161
  atomic energy  EATOM  =      1000.86417562
  Solvation  Ediel_sol  =         0.00000000
  ---------------------------------------------------
  free energy    TOTEN  =       -50.34889877 eV

  energy without entropy =      -50.34795035  energy(sigma->0) =      -50.34842456


--------------------------------------------------------------------------------------------------------




--------------------------------------- Iteration      1(   5)  ---------------------------------------


     EDDAV:  cpu time    0.5809: real time    0.5812
       DOS:  cpu time    0.0000: real time    0.0004
    CHARGE:  cpu time    0.0370: real time    0.0372
    MIXING:  cpu time    0.0020: real time    0.0010
    --------------------------------------------
      LOOP:  cpu time    0.6199: real time    0.6198

 eigenvalue-minimisations  :  1344
 total energy-change (2. order) :-0.1281415E-02  (-0.1281382E-02)
 number of electron      32.0000000 magnetization       2.5735924
 augmentation part       -0.3743200 magnetization       1.2794362

 Broyden mixing:
  rms(total) = 0.17593E+01    rms(broyden)= 0.17592E+01
  rms(prec ) = 0.29889E+01
  weight for this iteration     100.00

 Free energy of the ion-electron system (eV)
  ---------------------------------------------------
  alpha Z        PSCENC =        34.98916692
  Ewald energy   TEWEN  =      -887.29291169
  -Hartree energ DENC   =      -226.50935153
  -exchange      EXHF   =         0.00000000
  -V(xc)+E(xc)   XCENC  =        17.04933542
  PAW double counting   =       785.71187468     -717.55646816
  entropy T*S    EENTRO =        -0.00094842
  eigenvalues    EBANDS =       -57.60505303
  atomic energy  EATOM  =      1000.86417562
  Solvation  Ediel_sol  =         0.00000000
  ---------------------------------------------------
  free energy    TOTEN  =       -50.35018018 eV

  energy without entropy =      -50.34923176  energy(sigma->0) =      -50.34970597


--------------------------------------------------------------------------------------------------------




--------------------------------------- Iteration      1(   6)  ---------------------------------------


    POTLOK:  cpu time    0.0190: real time    0.0203
    SETDIJ:  cpu time    0.2590: real time    0.2696
     EDDAV:  cpu time    0.5949: real time    0.5945
       DOS:  cpu time    0.0000: real time    0.0004
    CHARGE:  cpu time    0.0350: real time    0.0354
    MIXING:  cpu time    0.0010: real time    0.0007
    --------------------------------------------
      LOOP:  cpu time    0.9089: real time    0.9209

 eigenvalue-minimisations  :  1376
 total energy-change (2. order) : 0.4730384E+01  (-0.1627721E+01)
 number of electron      32.0000000 magnetization       1.1061181
 augmentation part       -0.6337247 magnetization       0.4516519

 Broyden mixing:
  rms(total) = 0.76625E+00    rms(broyden)= 0.76615E+00
  rms(prec ) = 0.10145E+01
  weight for this iteration     100.00

 eigenvalues of (default mixing * dielectric matrix)
  average eigenvalue GAMMA=   1.0107
  1.0107

 Free energy of the ion-electron system (eV)
  ---------------------------------------------------
  alpha Z        PSCENC =        34.98916692
  Ewald energy   TEWEN  =      -887.29291169
  -Hartree energ DENC   =      -266.78116796
  -exchange      EXHF   =         0.00000000
  -V(xc)+E(xc)   XCENC  =        18.34999302
  PAW double counting   =      1576.93850692    -1509.18031764
  entropy T*S    EENTRO =        -0.00044508
  eigenvalues    EBANDS =       -13.50679600
  atomic energy  EATOM  =      1000.86417562
  Solvation  Ediel_sol  =         0.00000000
  ---------------------------------------------------
  free energy    TOTEN  =       -45.61979589 eV

  energy without entropy =      -45.61935081  energy(sigma->0) =      -45.61957335


--------------------------------------------------------------------------------------------------------




--------------------------------------- Iteration      1(   7)  ---------------------------------------


    POTLOK:  cpu time    0.0190: real time    0.0191
    SETDIJ:  cpu time    0.2690: real time    0.2685
     EDDAV:  cpu time    0.6089: real time    0.6095
       DOS:  cpu time    0.0000: real time    0.0004
    CHARGE:  cpu time    0.0330: real time    0.0338
    MIXING:  cpu time    0.0020: real time    0.0008
    --------------------------------------------
      LOOP:  cpu time    0.9319: real time    0.9321

 eigenvalue-minimisations  :  1376
 total energy-change (2. order) :-0.2309744E+00  (-0.3602958E+00)
 number of electron      32.0000000 magnetization       0.2533068
 augmentation part       -0.6577198 magnetization      -0.0799330

 Broyden mixing:
  rms(total) = 0.41570E+00    rms(broyden)= 0.41567E+00
  rms(prec ) = 0.49836E+00
  weight for this iteration     100.00

 eigenvalues of (default mixing * dielectric matrix)
  average eigenvalue GAMMA=   1.1125
  0.8349  1.3901

 Free energy of the ion-electron system (eV)
  ---------------------------------------------------
  alpha Z        PSCENC =        34.98916692
  Ewald energy   TEWEN  =      -887.29291169
  -Hartree energ DENC   =      -266.59176379
  -exchange      EXHF   =         0.00000000
  -V(xc)+E(xc)   XCENC  =        18.44186258
  PAW double counting   =      2223.73462473    -2156.11759225
  entropy T*S    EENTRO =        -0.00170079
  eigenvalues    EBANDS =       -13.87663161
  atomic energy  EATOM  =      1000.86417562
  Solvation  Ediel_sol  =         0.00000000
  ---------------------------------------------------
  free energy    TOTEN  =       -45.85077027 eV

  energy without entropy =      -45.84906948  energy(sigma->0) =      -45.84991988


--------------------------------------------------------------------------------------------------------




--------------------------------------- Iteration      1(   8)  ---------------------------------------


    POTLOK:  cpu time    0.0190: real time    0.0191
    SETDIJ:  cpu time    0.2680: real time    0.2686
     EDDAV:  cpu time    0.6619: real time    0.6626
       DOS:  cpu time    0.0010: real time    0.0004
    CHARGE:  cpu time    0.0300: real time    0.0316
    MIXING:  cpu time    0.0020: real time    0.0009
    --------------------------------------------
      LOOP:  cpu time    0.9819: real time    0.9833

 eigenvalue-minimisations  :  1504
 total energy-change (2. order) : 0.2868683E-02  (-0.2210345E-01)
 number of electron      32.0000000 magnetization       0.0014576
 augmentation part       -0.6457143 magnetization      -0.1376502

 Broyden mixing:
  rms(total) = 0.18177E+00    rms(broyden)= 0.18177E+00
  rms(prec ) = 0.22030E+00
  weight for this iteration     100.00

 eigenvalues of (default mixing * dielectric matrix)
  average eigenvalue GAMMA=   1.1796
  1.8610  1.0019  0.6758

 Free energy of the ion-electron system (eV)
  ---------------------------------------------------
  alpha Z        PSCENC =        34.98916692
  Ewald energy   TEWEN  =      -887.29291169
  -Hartree energ DENC   =      -268.10338374
  -exchange      EXHF   =         0.00000000
  -V(xc)+E(xc)   XCENC  =        18.61031887
  PAW double counting   =      2763.73941095    -2696.17034195
  entropy T*S    EENTRO =        -0.00214113
  eigenvalues    EBANDS =       -12.48219544
  atomic energy  EATOM  =      1000.86417562
  Solvation  Ediel_sol  =         0.00000000
  ---------------------------------------------------
  free energy    TOTEN  =       -45.84790159 eV

  energy without entropy =      -45.84576046  energy(sigma->0) =      -45.84683102


--------------------------------------------------------------------------------------------------------




--------------------------------------- Iteration      1(   9)  ---------------------------------------


    POTLOK:  cpu time    0.0190: real time    0.0192
    SETDIJ:  cpu time    0.2690: real time    0.2693
     EDDAV:  cpu time    0.5999: real time    0.6001
       DOS:  cpu time    0.0000: real time    0.0004
    CHARGE:  cpu time    0.0310: real time    0.0317
    MIXING:  cpu time    0.0010: real time    0.0007
    --------------------------------------------
      LOOP:  cpu time    0.9199: real time    0.9214

 eigenvalue-minimisations  :  1392
 total energy-change (2. order) : 0.2075976E-02  (-0.3859400E-02)
 number of electron      32.0000000 magnetization      -0.0435715
 augmentation part       -0.6479977 magnetization      -0.0445535

 Broyden mixing:
  rms(total) = 0.78986E-01    rms(broyden)= 0.78983E-01
  rms(prec ) = 0.93165E-01
  weight for this iteration     100.00

 eigenvalues of (default mixing * dielectric matrix)
  average eigenvalue GAMMA=   1.1701
  2.1316  0.9639  0.9639  0.6210

 Free energy of the ion-electron system (eV)
  ---------------------------------------------------
  alpha Z        PSCENC =        34.98916692
  Ewald energy   TEWEN  =      -887.29291169
  -Hartree energ DENC   =      -269.54994506
  -exchange      EXHF   =         0.00000000
  -V(xc)+E(xc)   XCENC  =        18.76752418
  PAW double counting   =      3054.62913879    -2987.08124817
  entropy T*S    EENTRO =        -0.00003354
  eigenvalues    EBANDS =       -11.17169266
  atomic energy  EATOM  =      1000.86417562
  Solvation  Ediel_sol  =         0.00000000
  ---------------------------------------------------
  free energy    TOTEN  =       -45.84582561 eV

  energy without entropy =      -45.84579207  energy(sigma->0) =      -45.84580884


--------------------------------------------------------------------------------------------------------




--------------------------------------- Iteration      1(  10)  ---------------------------------------


    POTLOK:  cpu time    0.0190: real time    0.0191
    SETDIJ:  cpu time    0.2690: real time    0.2686
     EDDAV:  cpu time    0.6259: real time    0.6271
       DOS:  cpu time    0.0000: real time    0.0004
    CHARGE:  cpu time    0.0320: real time    0.0316
    MIXING:  cpu time    0.0010: real time    0.0008
    --------------------------------------------
      LOOP:  cpu time    0.9469: real time    0.9477

 eigenvalue-minimisations  :  1456
 total energy-change (2. order) : 0.1242209E-02  (-0.5805068E-03)
 number of electron      32.0000000 magnetization      -0.0076664
 augmentation part       -0.6486705 magnetization      -0.0076181

 Broyden mixing:
  rms(total) = 0.25015E-01    rms(broyden)= 0.25014E-01
  rms(prec ) = 0.32038E-01
  weight for this iteration     100.00

 eigenvalues of (default mixing * dielectric matrix)
  average eigenvalue GAMMA=   1.1689
  2.2627  1.1746  0.9427  0.8511  0.6133

 Free energy of the ion-electron system (eV)
  ---------------------------------------------------
  alpha Z        PSCENC =        34.98916692
  Ewald energy   TEWEN  =      -887.29291169
  -Hartree energ DENC   =      -269.87282535
  -exchange      EXHF   =         0.00000000
  -V(xc)+E(xc)   XCENC  =        18.81571290
  PAW double counting   =      3147.37128277    -3079.82873196
  entropy T*S    EENTRO =        -0.00003423
  eigenvalues    EBANDS =       -10.89041839
  atomic energy  EATOM  =      1000.86417562
  Solvation  Ediel_sol  =         0.00000000
  ---------------------------------------------------
  free energy    TOTEN  =       -45.84458340 eV

  energy without entropy =      -45.84454918  energy(sigma->0) =      -45.84456629


--------------------------------------------------------------------------------------------------------




--------------------------------------- Iteration      1(  11)  ---------------------------------------


    POTLOK:  cpu time    0.0190: real time    0.0195
    SETDIJ:  cpu time    0.2700: real time    0.2692
     EDDAV:  cpu time    0.6259: real time    0.6371
       DOS:  cpu time    0.0000: real time    0.0004
    CHARGE:  cpu time    0.0310: real time    0.0315
    MIXING:  cpu time    0.0020: real time    0.0008
    --------------------------------------------
      LOOP:  cpu time    0.9479: real time    0.9586

 eigenvalue-minimisations  :  1456
 total energy-change (2. order) :-0.2759051E-03  (-0.1399963E-03)
 number of electron      32.0000000 magnetization       0.0041774
 augmentation part       -0.6487797 magnetization       0.0042996

 Broyden mixing:
  rms(total) = 0.11513E-01    rms(broyden)= 0.11513E-01
  rms(prec ) = 0.15032E-01
  weight for this iteration     100.00

 eigenvalues of (default mixing * dielectric matrix)
  average eigenvalue GAMMA=   1.1924
  2.2845  1.6153  0.9327  0.9327  0.7705  0.6189

 Free energy of the ion-electron system (eV)
  ---------------------------------------------------
  alpha Z        PSCENC =        34.98916692
  Ewald energy   TEWEN  =      -887.29291169
  -Hartree energ DENC   =      -269.91025520
  -exchange      EXHF   =         0.00000000
  -V(xc)+E(xc)   XCENC  =        18.82914586
  PAW double counting   =      3164.54123307    -3096.99719772
  entropy T*S    EENTRO =        -0.00004558
  eigenvalues    EBANDS =       -10.86817058
  atomic energy  EATOM  =      1000.86417562
  Solvation  Ediel_sol  =         0.00000000
  ---------------------------------------------------
  free energy    TOTEN  =       -45.84485931 eV

  energy without entropy =      -45.84481372  energy(sigma->0) =      -45.84483652


--------------------------------------------------------------------------------------------------------




--------------------------------------- Iteration      1(  12)  ---------------------------------------


    POTLOK:  cpu time    0.0190: real time    0.0191
    SETDIJ:  cpu time    0.2690: real time    0.2690
     EDDAV:  cpu time    0.6519: real time    0.6524
       DOS:  cpu time    0.0000: real time    0.0004
    CHARGE:  cpu time    0.0320: real time    0.0316
    MIXING:  cpu time    0.0010: real time    0.0008
    --------------------------------------------
      LOOP:  cpu time    0.9729: real time    0.9733

 eigenvalue-minimisations  :  1520
 total energy-change (2. order) :-0.6461527E-04  (-0.1718362E-04)
 number of electron      32.0000000 magnetization       0.0030511
 augmentation part       -0.6489696 magnetization       0.0029518

 Broyden mixing:
  rms(total) = 0.57914E-02    rms(broyden)= 0.57913E-02
  rms(prec ) = 0.74433E-02
  weight for this iteration     100.00

 eigenvalues of (default mixing * dielectric matrix)
  average eigenvalue GAMMA=   1.2237
  2.2603  2.0407  0.9776  0.9776  0.9860  0.7036  0.6204

 Free energy of the ion-electron system (eV)
  ---------------------------------------------------
  alpha Z        PSCENC =        34.98916692
  Ewald energy   TEWEN  =      -887.29291169
  -Hartree energ DENC   =      -269.92337304
  -exchange      EXHF   =         0.00000000
  -V(xc)+E(xc)   XCENC  =        18.83354548
  PAW double counting   =      3161.21827972    -3093.67325508
  entropy T*S    EENTRO =        -0.00004940
  eigenvalues    EBANDS =       -10.86050246
  atomic energy  EATOM  =      1000.86417562
  Solvation  Ediel_sol  =         0.00000000
  ---------------------------------------------------
  free energy    TOTEN  =       -45.84492392 eV

  energy without entropy =      -45.84487452  energy(sigma->0) =      -45.84489922


--------------------------------------------------------------------------------------------------------




--------------------------------------- Iteration      1(  13)  ---------------------------------------


    POTLOK:  cpu time    0.0190: real time    0.0192
    SETDIJ:  cpu time    0.2690: real time    0.2694
     EDDAV:  cpu time    0.6389: real time    0.6395
       DOS:  cpu time    0.0000: real time    0.0004
    CHARGE:  cpu time    0.0320: real time    0.0320
    MIXING:  cpu time    0.0010: real time    0.0009
    --------------------------------------------
      LOOP:  cpu time    0.9599: real time    0.9614

 eigenvalue-minimisations  :  1488
 total energy-change (2. order) :-0.3398503E-04  (-0.6931092E-05)
 number of electron      32.0000000 magnetization       0.0002542
 augmentation part       -0.6488518 magnetization       0.0002160

 Broyden mixing:
  rms(total) = 0.22841E-02    rms(broyden)= 0.22840E-02
  rms(prec ) = 0.28453E-02
  weight for this iteration     100.00

 eigenvalues of (default mixing * dielectric matrix)
  average eigenvalue GAMMA=   1.2724
  2.3706  2.3706  1.3400  0.9942  0.9942  0.8227  0.6185  0.6684

 Free energy of the ion-electron system (eV)
  ---------------------------------------------------
  alpha Z        PSCENC =        34.98916692
  Ewald energy   TEWEN  =      -887.29291169
  -Hartree energ DENC   =      -269.94137865
  -exchange      EXHF   =         0.00000000
  -V(xc)+E(xc)   XCENC  =        18.83669495
  PAW double counting   =      3155.88848973    -3088.34316325
  entropy T*S    EENTRO =        -0.00004977
  eigenvalues    EBANDS =       -10.84598177
  atomic energy  EATOM  =      1000.86417562
  Solvation  Ediel_sol  =         0.00000000
  ---------------------------------------------------
  free energy    TOTEN  =       -45.84495791 eV

  energy without entropy =      -45.84490814  energy(sigma->0) =      -45.84493302


--------------------------------------------------------------------------------------------------------




--------------------------------------- Iteration      1(  14)  ---------------------------------------


    POTLOK:  cpu time    0.0190: real time    0.0192
    SETDIJ:  cpu time    0.2700: real time    0.2693
     EDDAV:  cpu time    0.6339: real time    0.6350
       DOS:  cpu time    0.0000: real time    0.0004
    CHARGE:  cpu time    0.0310: real time    0.0318
    MIXING:  cpu time    0.0020: real time    0.0009
    --------------------------------------------
      LOOP:  cpu time    0.9559: real time    0.9566

 eigenvalue-minimisations  :  1472
 total energy-change (2. order) :-0.8348668E-05  (-0.1200044E-05)
 number of electron      32.0000000 magnetization      -0.0004874
 augmentation part       -0.6488670 magnetization      -0.0005061

 Broyden mixing:
  rms(total) = 0.83268E-03    rms(broyden)= 0.83263E-03
  rms(prec ) = 0.10948E-02
  weight for this iteration     100.00

 eigenvalues of (default mixing * dielectric matrix)
  average eigenvalue GAMMA=   1.2642
  2.4615  2.4615  1.4851  0.9839  0.9563  0.9563  0.8037  0.6542  0.6151

 Free energy of the ion-electron system (eV)
  ---------------------------------------------------
  alpha Z        PSCENC =        34.98916692
  Ewald energy   TEWEN  =      -887.29291169
  -Hartree energ DENC   =      -269.96523513
  -exchange      EXHF   =         0.00000000
  -V(xc)+E(xc)   XCENC  =        18.83876640
  PAW double counting   =      3152.42284471    -3084.87768332
  entropy T*S    EENTRO =        -0.00005052
  eigenvalues    EBANDS =       -10.82403923
  atomic energy  EATOM  =      1000.86417562
  Solvation  Ediel_sol  =         0.00000000
  ---------------------------------------------------
  free energy    TOTEN  =       -45.84496626 eV

  energy without entropy =      -45.84491573  energy(sigma->0) =      -45.84494099


--------------------------------------------------------------------------------------------------------




--------------------------------------- Iteration      1(  15)  ---------------------------------------


    POTLOK:  cpu time    0.0190: real time    0.0192
    SETDIJ:  cpu time    0.2700: real time    0.2696
     EDDAV:  cpu time    0.6449: real time    0.6456
       DOS:  cpu time    0.0000: real time    0.0004
    CHARGE:  cpu time    0.0320: real time    0.0317
    MIXING:  cpu time    0.0010: real time    0.0010
    --------------------------------------------
      LOOP:  cpu time    0.9669: real time    0.9674

 eigenvalue-minimisations  :  1504
 total energy-change (2. order) :-0.1748377E-05  (-0.2298874E-06)
 number of electron      32.0000000 magnetization      -0.0002095
 augmentation part       -0.6488883 magnetization      -0.0001938

 Broyden mixing:
  rms(total) = 0.39541E-03    rms(broyden)= 0.39534E-03
  rms(prec ) = 0.50462E-03
  weight for this iteration     100.00

 eigenvalues of (default mixing * dielectric matrix)
  average eigenvalue GAMMA=   1.2752
  2.5168  2.5168  1.6373  1.2865  0.9744  0.9744  0.8621  0.7214  0.6447  0.6176

 Free energy of the ion-electron system (eV)
  ---------------------------------------------------
  alpha Z        PSCENC =        34.98916692
  Ewald energy   TEWEN  =      -887.29291169
  -Hartree energ DENC   =      -269.97574138
  -exchange      EXHF   =         0.00000000
  -V(xc)+E(xc)   XCENC  =        18.83963634
  PAW double counting   =      3151.33237642    -3083.78737101
  entropy T*S    EENTRO =        -0.00005058
  eigenvalues    EBANDS =       -10.81424865
  atomic energy  EATOM  =      1000.86417562
  Solvation  Ediel_sol  =         0.00000000
  ---------------------------------------------------
  free energy    TOTEN  =       -45.84496801 eV

  energy without entropy =      -45.84491743  energy(sigma->0) =      -45.84494272


--------------------------------------------------------------------------------------------------------




--------------------------------------- Iteration      1(  16)  ---------------------------------------


    POTLOK:  cpu time    0.0190: real time    0.0192
    SETDIJ:  cpu time    0.2690: real time    0.2692
     EDDAV:  cpu time    0.6479: real time    0.6571
       DOS:  cpu time    0.0000: real time    0.0005
    CHARGE:  cpu time    0.0310: real time    0.0317
    MIXING:  cpu time    0.0020: real time    0.0011
    --------------------------------------------
      LOOP:  cpu time    0.9689: real time    0.9789

 eigenvalue-minimisations  :  1504
 total energy-change (2. order) :-0.4508286E-06  (-0.3462958E-07)
 number of electron      32.0000000 magnetization       0.0000822
 augmentation part       -0.6488822 magnetization       0.0000894

 Broyden mixing:
  rms(total) = 0.15351E-03    rms(broyden)= 0.15333E-03
  rms(prec ) = 0.22146E-03
  weight for this iteration     100.00

 eigenvalues of (default mixing * dielectric matrix)
  average eigenvalue GAMMA=   1.2932
  2.7457  2.4335  1.9113  1.4106  0.9967  0.9967  0.9228  0.8486  0.7028  0.6209
  0.6354

 Free energy of the ion-electron system (eV)
  ---------------------------------------------------
  alpha Z        PSCENC =        34.98916692
  Ewald energy   TEWEN  =      -887.29291169
  -Hartree energ DENC   =      -269.97849550
  -exchange      EXHF   =         0.00000000
  -V(xc)+E(xc)   XCENC  =        18.83985616
  PAW double counting   =      3150.92279173    -3083.37783281
  entropy T*S    EENTRO =        -0.00005048
  eigenvalues    EBANDS =       -10.81166841
  atomic energy  EATOM  =      1000.86417562
  Solvation  Ediel_sol  =         0.00000000
  ---------------------------------------------------
  free energy    TOTEN  =       -45.84496846 eV

  energy without entropy =      -45.84491797  energy(sigma->0) =      -45.84494322


--------------------------------------------------------------------------------------------------------




--------------------------------------- Iteration      1(  17)  ---------------------------------------


    POTLOK:  cpu time    0.0190: real time    0.0191
    SETDIJ:  cpu time    0.2690: real time    0.2692
     EDDAV:  cpu time    0.6569: real time    0.6579
       DOS:  cpu time    0.0010: real time    0.0004
    CHARGE:  cpu time    0.0310: real time    0.0320
    MIXING:  cpu time    0.0020: real time    0.0011
    --------------------------------------------
      LOOP:  cpu time    0.9789: real time    0.9797

 eigenvalue-minimisations  :  1520
 total energy-change (2. order) :-0.1488304E-06  (-0.1453562E-07)
 number of electron      32.0000000 magnetization       0.0000191
 augmentation part       -0.6488743 magnetization       0.0000179

 Broyden mixing:
  rms(total) = 0.59652E-04    rms(broyden)= 0.59170E-04
  rms(prec ) = 0.83778E-04
  weight for this iteration     100.00

 eigenvalues of (default mixing * dielectric matrix)
  average eigenvalue GAMMA=   1.2864
  2.8285  2.3455  2.1766  1.4289  1.1369  0.9799  0.9799  0.8293  0.7902  0.6866
  0.6151  0.6392

 Free energy of the ion-electron system (eV)
  ---------------------------------------------------
  alpha Z        PSCENC =        34.98916692
  Ewald energy   TEWEN  =      -887.29291169
  -Hartree energ DENC   =      -269.97997682
  -exchange      EXHF   =         0.00000000
  -V(xc)+E(xc)   XCENC  =        18.83996081
  PAW double counting   =      3150.73438624    -3083.18943349
  entropy T*S    EENTRO =        -0.00005045
  eigenvalues    EBANDS =       -10.81028574
  atomic energy  EATOM  =      1000.86417562
  Solvation  Ediel_sol  =         0.00000000
  ---------------------------------------------------
  free energy    TOTEN  =       -45.84496861 eV

  energy without entropy =      -45.84491816  energy(sigma->0) =      -45.84494338


--------------------------------------------------------------------------------------------------------




--------------------------------------- Iteration      1(  18)  ---------------------------------------


    POTLOK:  cpu time    0.0190: real time    0.0191
    SETDIJ:  cpu time    0.2690: real time    0.2692
     EDDAV:  cpu time    0.6289: real time    0.6293
       DOS:  cpu time    0.0000: real time    0.0004
    CHARGE:  cpu time    0.0310: real time    0.0317
    MIXING:  cpu time    0.0020: real time    0.0011
    --------------------------------------------
      LOOP:  cpu time    0.9499: real time    0.9508

 eigenvalue-minimisations  :  1456
 total energy-change (2. order) :-0.1587864E-07  (-0.1718916E-08)
 number of electron      32.0000000 magnetization      -0.0000087
 augmentation part       -0.6488725 magnetization      -0.0000090

 Broyden mixing:
  rms(total) = 0.31949E-04    rms(broyden)= 0.31041E-04
  rms(prec ) = 0.44695E-04
  weight for this iteration     100.00

 eigenvalues of (default mixing * dielectric matrix)
  average eigenvalue GAMMA=   1.2986
  2.8410  2.3715  2.3715  1.5597  1.3033  1.0026  1.0026  0.8776  0.8776  0.7467
  0.6832  0.6156  0.6287

 Free energy of the ion-electron system (eV)
  ---------------------------------------------------
  alpha Z        PSCENC =        34.98916692
  Ewald energy   TEWEN  =      -887.29291169
  -Hartree energ DENC   =      -269.98045780
  -exchange      EXHF   =         0.00000000
  -V(xc)+E(xc)   XCENC  =        18.83999093
  PAW double counting   =      3150.78686813    -3083.24190634
  entropy T*S    EENTRO =        -0.00005046
  eigenvalues    EBANDS =       -10.80984393
  atomic energy  EATOM  =      1000.86417562
  Solvation  Ediel_sol  =         0.00000000
  ---------------------------------------------------
  free energy    TOTEN  =       -45.84496862 eV

  energy without entropy =      -45.84491816  energy(sigma->0) =      -45.84494339


--------------------------------------------------------------------------------------------------------




--------------------------------------- Iteration      1(  19)  ---------------------------------------


    POTLOK:  cpu time    0.0190: real time    0.0191
    SETDIJ:  cpu time    0.2700: real time    0.2697
     EDDAV:  cpu time    0.5949: real time    0.5982
       DOS:  cpu time    0.0010: real time    0.0004
    --------------------------------------------
      LOOP:  cpu time    0.8849: real time    0.8875

 eigenvalue-minimisations  :  1328
 total energy-change (2. order) : 0.1825811E-08  (-0.6105788E-09)
 number of electron      32.0000000 magnetization      -0.0000087
 augmentation part       -0.6488725 magnetization      -0.0000090

 Free energy of the ion-electron system (eV)
  ---------------------------------------------------
  alpha Z        PSCENC =        34.98916692
  Ewald energy   TEWEN  =      -887.29291169
  -Hartree energ DENC   =      -269.98080985
  -exchange      EXHF   =         0.00000000
  -V(xc)+E(xc)   XCENC  =        18.84000798
  PAW double counting   =      3150.82010831    -3083.27513686
  entropy T*S    EENTRO =        -0.00005048
  eigenvalues    EBANDS =       -10.80951857
  atomic energy  EATOM  =      1000.86417562
  Solvation  Ediel_sol  =         0.00000000
  ---------------------------------------------------
  free energy    TOTEN  =       -45.84496862 eV

  energy without entropy =      -45.84491814  energy(sigma->0) =      -45.84494338


--------------------------------------------------------------------------------------------------------




 average (electrostatic) potential at core
  the test charge radii are     0.6991  0.9892
  (the norm of the test charge is              1.0000)
       1 -48.0492       2 -49.5166       3 -49.1644       4 -48.9410       5 -83.5178
       6 -83.5417       7 -83.4629       8 -83.7122
 
 
 
 E-fermi :   6.5248     XC(G=0): -10.2243     alpha+bet :-12.8429


 spin component 1

 k-point     1 :       0.0000    0.0000    0.0000
  band No.  band energies     occupation 
      1     -12.3130      1.00000
      2      -7.2470      1.00000
      3      -6.3556      1.00000
      4      -3.3506      1.00000
      5      -2.3095      1.00000
      6      -1.7798      1.00000
      7      -0.7219      1.00000
      8       0.6108      1.00000
      9       1.4890      1.00000
     10       1.9618      1.00000
     11       2.5445      1.00000
     12       3.3895      1.00000
     13       4.1238      1.00000
     14       4.8760      1.00000
     15       5.3062      1.00000
     16       5.8828      1.00000
     17       7.0262      0.00000
     18       7.7229      0.00000
     19       8.6821      0.00000
     20       9.0261      0.00000
     21       9.6646      0.00000
     22      10.5741      0.00000
     23      11.1915      0.00000
     24      11.8330      0.00000
     25      12.0873      0.00000
     26      12.5032      0.00000
     27      13.3571      0.00000
     28      14.3362      0.00000
     29      14.4220      0.00000
     30      15.2070      0.00000
     31      15.3408      0.00000
     32      15.9167      0.00000

 k-point     2 :       0.3333    0.0000    0.0000
  band No.  band energies     occupation 
      1     -11.8157      1.00000
      2      -6.6361      1.00000
      3      -5.5016      1.00000
      4      -3.9900      1.00000
      5      -2.8109      1.00000
      6      -2.2284      1.00000
      7      -1.2498      1.00000
      8       0.2029      1.00000
      9       0.6771      1.00000
     10       1.4790      1.00000
     11       2.1605      1.00000
     12       3.0076      1.00000
     13       3.3698      1.00000
     14       4.5430      1.00000
     15       5.4637      1.00000
     16       6.1252      1.00000
     17       6.4833      0.99834
     18       7.3968      0.00000
     19       7.9731      0.00000
     20       9.1085      0.00000
     21      10.0079      0.00000
     22      10.4445      0.00000
     23      10.9143      0.00000
     24      11.4504      0.00000
     25      12.3229      0.00000
     26      12.9085      0.00000
     27      13.5305      0.00000
     28      14.2046      0.00000
     29      15.2438      0.00000
     30      15.3902      0.00000
     31      16.0114      0.00000
     32      16.3166      0.00000

 k-point     3 :       0.0000    0.5000    0.0000
  band No.  band energies     occupation 
      1     -12.2439      1.00000
      2      -7.3185      1.00000
      3      -6.4751      1.00000
      4      -3.7833      1.00000
      5      -2.5732      1.00000
      6      -1.2904      1.00000
      7      -0.6777      1.00000
      8       0.5319      1.00000
      9       1.5172      1.00000
     10       2.5315      1.00000
     11       3.2248      1.00000
     12       3.8516      1.00000
     13       4.2138      1.00000
     14       4.8048      1.00000
     15       5.2930      1.00000
     16       6.1288      1.00000
     17       6.7482      0.00000
     18       7.5870      0.00000
     19       7.8589      0.00000
     20       8.8901      0.00000
     21       9.6080      0.00000
     22      10.3872      0.00000
     23      10.9138      0.00000
     24      11.5507      0.00000
     25      11.7236      0.00000
     26      12.5888      0.00000
     27      13.1832      0.00000
     28      13.4163      0.00000
     29      14.4085      0.00000
     30      14.6383      0.00000
     31      15.3448      0.00000
     32      16.1468      0.00000

 k-point     4 :       0.3333    0.5000   -0.0000
  band No.  band energies     occupation 
      1     -11.7800      1.00000
      2      -6.3396      1.00000
      3      -5.6499      1.00000
      4      -4.4232      1.00000
      5      -3.1929      1.00000
      6      -2.0958      1.00000
      7      -1.1856      1.00000
      8      -0.3072      1.00000
      9       0.5788      1.00000
     10       2.1052      1.00000
     11       2.3912      1.00000
     12       2.9671      1.00000
     13       4.2901      1.00000
     14       4.8330      1.00000
     15       5.5249      1.00000
     16       6.5663      0.00166
     17       6.8996      0.00000
     18       7.5405      0.00000
     19       7.8868      0.00000
     20       8.7642      0.00000
     21       9.5191      0.00000
     22      10.0244      0.00000
     23      10.9567      0.00000
     24      11.3200      0.00000
     25      11.9172      0.00000
     26      12.6015      0.00000
     27      13.4438      0.00000
     28      14.1463      0.00000
     29      14.8664      0.00000
     30      15.2262      0.00000
     31      15.6555      0.00000
     32      16.2878      0.00000

 k-point     5 :       0.0000    0.0000    0.5000
  band No.  band energies     occupation 
      1     -12.2962      1.00000
      2      -7.5404      1.00000
      3      -6.0364      1.00000
      4      -3.1917      1.00000
      5      -2.9042      1.00000
      6      -1.0521      1.00000
      7      -0.3470      1.00000
      8       0.2307      1.00000
      9       0.6147      1.00000
     10       2.4638      1.00000
     11       2.9252      1.00000
     12       3.5900      1.00000
     13       4.1116      1.00000
     14       4.5826      1.00000
     15       5.0806      1.00000
     16       5.4716      1.00000
     17       7.2331      0.00000
     18       7.8942      0.00000
     19       8.1739      0.00000
     20       8.8757      0.00000
     21       9.7318      0.00000
     22      10.6148      0.00000
     23      11.1752      0.00000
     24      12.0685      0.00000
     25      12.4454      0.00000
     26      12.6880      0.00000
     27      13.1366      0.00000
     28      14.1649      0.00000
     29      14.4148      0.00000
     30      15.0249      0.00000
     31      15.4445      0.00000
     32      16.0539      0.00000

 k-point     6 :       0.3333    0.0000    0.5000
  band No.  band energies     occupation 
      1     -11.8091      1.00000
      2      -6.5428      1.00000
      3      -5.8027      1.00000
      4      -3.9063      1.00000
      5      -2.7399      1.00000
      6      -1.8953      1.00000
      7      -1.1745      1.00000
      8      -0.4455      1.00000
      9       1.1040      1.00000
     10       1.3085      1.00000
     11       2.3917      1.00000
     12       2.7638      1.00000
     13       3.9840      1.00000
     14       4.2702      1.00000
     15       5.1259      1.00000
     16       5.9573      1.00000
     17       6.8755      0.00000
     18       7.3154      0.00000
     19       7.7392      0.00000
     20       8.8868      0.00000
     21       9.7902      0.00000
     22      10.5579      0.00000
     23      10.8912      0.00000
     24      11.2834      0.00000
     25      12.3545      0.00000
     26      13.2954      0.00000
     27      13.6523      0.00000
     28      14.2030      0.00000
     29      14.9555      0.00000
     30      15.4815      0.00000
     31      16.0922      0.00000
     32      16.6940      0.00000

 k-point     7 :       0.0000    0.5000    0.5000
  band No.  band energies     occupation 
      1     -12.2544      1.00000
      2      -7.4191      1.00000
      3      -6.1594      1.00000
      4      -3.6847      1.00000
      5      -2.8751      1.00000
      6      -1.6515      1.00000
      7      -0.8551      1.00000
      8       0.7769      1.00000
      9       1.2779      1.00000
     10       2.6632      1.00000
     11       3.5923      1.00000
     12       3.9224      1.00000
     13       4.3280      1.00000
     14       4.9230      1.00000
     15       5.4357      1.00000
     16       6.2213      1.00000
     17       6.7978      0.00000
     18       7.6583      0.00000
     19       8.1755      0.00000
     20       8.7268      0.00000
     21       9.6587      0.00000
     22      10.0515      0.00000
     23      10.9383      0.00000
     24      11.4110      0.00000
     25      11.7297      0.00000
     26      12.1634      0.00000
     27      13.1405      0.00000
     28      13.4369      0.00000
     29      13.8020      0.00000
     30      14.4331      0.00000
     31      15.3496      0.00000
     32      16.4288      0.00000

 k-point     8 :       0.3333    0.5000    0.5000
  band No.  band energies     occupation 
      1     -11.7843      1.00000
      2      -6.4164      1.00000
      3      -5.5990      1.00000
      4      -4.2848      1.00000
      5      -2.9089      1.00000
      6      -2.2646      1.00000
      7      -1.0062      1.00000
      8      -0.8829      1.00000
      9       0.4073      1.00000
     10       1.5883      1.00000
     11       2.4835      1.00000
     12       3.7258      1.00000
     13       4.2525      1.00000
     14       4.5150      1.00000
     15       5.8111      1.00000
     16       6.4566      1.00000
     17       7.4202      0.00000
     18       7.7853      0.00000
     19       8.3987      0.00000
     20       8.6693      0.00000
     21       9.3403      0.00000
     22       9.9698      0.00000
     23      10.6715      0.00000
     24      11.3934      0.00000
     25      12.2044      0.00000
     26      12.5659      0.00000
     27      12.9534      0.00000
     28      14.0099      0.00000
     29      14.5412      0.00000
     30      15.2558      0.00000
     31      15.6091      0.00000
     32      15.7849      0.00000

 spin component 2

 k-point     1 :       0.0000    0.0000    0.0000
  band No.  band energies     occupation 
      1     -12.3130      1.00000
      2      -7.2470      1.00000
      3      -6.3556      1.00000
      4      -3.3506      1.00000
      5      -2.3095      1.00000
      6      -1.7798      1.00000
      7      -0.7219      1.00000
      8       0.6108      1.00000
      9       1.4890      1.00000
     10       1.9618      1.00000
     11       2.5445      1.00000
     12       3.3895      1.00000
     13       4.1238      1.00000
     14       4.8760      1.00000
     15       5.3062      1.00000
     16       5.8828      1.00000
     17       7.0262      0.00000
     18       7.7229      0.00000
     19       8.6821      0.00000
     20       9.0261      0.00000
     21       9.6646      0.00000
     22      10.5741      0.00000
     23      11.1915      0.00000
     24      11.8330      0.00000
     25      12.0873      0.00000
     26      12.5032      0.00000
     27      13.3571      0.00000
     28      14.3362      0.00000
     29      14.4220      0.00000
     30      15.2070      0.00000
     31      15.3408      0.00000
     32      15.9168      0.00000

 k-point     2 :       0.3333    0.0000    0.0000
  band No.  band energies     occupation 
      1     -11.8157      1.00000
      2      -6.6361      1.00000
      3      -5.5016      1.00000
      4      -3.9900      1.00000
      5      -2.8109      1.00000
      6      -2.2284      1.00000
      7      -1.2498      1.00000
      8       0.2029      1.00000
      9       0.6771      1.00000
     10       1.4790      1.00000
     11       2.1605      1.00000
     12       3.0076      1.00000
     13       3.3698      1.00000
     14       4.5430      1.00000
     15       5.4637      1.00000
     16       6.1252      1.00000
     17       6.4833      0.99834
     18       7.3968      0.00000
     19       7.9731      0.00000
     20       9.1085      0.00000
     21      10.0079      0.00000
     22      10.4445      0.00000
     23      10.9143      0.00000
     24      11.4504      0.00000
     25      12.3229      0.00000
     26      12.9085      0.00000
     27      13.5305      0.00000
     28      14.2046      0.00000
     29      15.2438      0.00000
     30      15.3902      0.00000
     31      16.0114      0.00000
     32      16.3166      0.00000

 k-point     3 :       0.0000    0.5000    0.0000
  band No.  band energies     occupation 
      1     -12.2439      1.00000
      2      -7.3185      1.00000
      3      -6.4751      1.00000
      4      -3.7833      1.00000
      5      -2.5732      1.00000
      6      -1.2904      1.00000
      7      -0.6777      1.00000
      8       0.5319      1.00000
      9       1.5172      1.00000
     10       2.5315      1.00000
     11       3.2248      1.00000
     12       3.8516      1.00000
     13       4.2137      1.00000
     14       4.8048      1.00000
     15       5.2930      1.00000
     16       6.1288      1.00000
     17       6.7482      0.00000
     18       7.5870      0.00000
     19       7.8589      0.00000
     20       8.8901      0.00000
     21       9.6080      0.00000
     22      10.3872      0.00000
     23      10.9138      0.00000
     24      11.5507      0.00000
     25      11.7236      0.00000
     26      12.5888      0.00000
     27      13.1832      0.00000
     28      13.4163      0.00000
     29      14.4085      0.00000
     30      14.6383      0.00000
     31      15.3448      0.00000
     32      16.1468      0.00000

 k-point     4 :       0.3333    0.5000   -0.0000
  band No.  band energies     occupation 
      1     -11.7800      1.00000
      2      -6.3396      1.00000
      3      -5.6499      1.00000
      4      -4.4232      1.00000
      5      -3.1929      1.00000
      6      -2.0958      1.00000
      7      -1.1856      1.00000
      8      -0.3072      1.00000
      9       0.5788      1.00000
     10       2.1052      1.00000
     11       2.3912      1.00000
     12       2.9671      1.00000
     13       4.2901      1.00000
     14       4.8330      1.00000
     15       5.5249      1.00000
     16       6.5663      0.00166
     17       6.8996      0.00000
     18       7.5405      0.00000
     19       7.8868      0.00000
     20       8.7642      0.00000
     21       9.5191      0.00000
     22      10.0244      0.00000
     23      10.9567      0.00000
     24      11.3200      0.00000
     25      11.9172      0.00000
     26      12.6015      0.00000
     27      13.4438      0.00000
     28      14.1463      0.00000
     29      14.8664      0.00000
     30      15.2262      0.00000
     31      15.6555      0.00000
     32      16.2878      0.00000

 k-point     5 :       0.0000    0.0000    0.5000
  band No.  band energies     occupation 
      1     -12.2962      1.00000
      2      -7.5404      1.00000
      3      -6.0364      1.00000
      4      -3.1917      1.00000
      5      -2.9042      1.00000
      6      -1.0521      1.00000
      7      -0.3470      1.00000
      8       0.2307      1.00000
      9       0.6147      1.00000
     10       2.4638      1.00000
     11       2.9252      1.00000
     12       3.5900      1.00000
     13       4.1116      1.00000
     14       4.5826      1.00000
     15       5.0806      1.00000
     16       5.4716      1.00000
     17       7.2331      0.00000
     18       7.8942      0.00000
     19       8.1739      0.00000
     20       8.8757      0.00000
     21       9.7318      0.00000
     22      10.6148      0.00000
     23      11.1752      0.00000
     24      12.0685      0.00000
     25      12.4454      0.00000
     26      12.6880      0.00000
     27      13.1366      0.00000
     28      14.1649      0.00000
     29      14.4148      0.00000
     30      15.0249      0.00000
     31      15.4445      0.00000
     32      16.0539      0.00000

 k-point     6 :       0.3333    0.0000    0.5000
  band No.  band energies     occupation 
      1     -11.8091      1.00000
      2      -6.5428      1.00000
      3      -5.8027      1.00000
      4      -3.9063      1.00000
      5      -2.7399      1.00000
      6      -1.8953      1.00000
      7      -1.1745      1.00000
      8      -0.4455      1.00000
      9       1.1040      1.00000
     10       1.3085      1.00000
     11       2.3917      1.00000
     12       2.7638      1.00000
     13       3.9840      1.00000
     14       4.2702      1.00000
     15       5.1259      1.00000
     16       5.9573      1.00000
     17       6.8755      0.00000
     18       7.3154      0.00000
     19       7.7392      0.00000
     20       8.8868      0.00000
     21       9.7902      0.00000
     22      10.5579      0.00000
     23      10.8912      0.00000
     24      11.2834      0.00000
     25      12.3545      0.00000
     26      13.2954      0.00000
     27      13.6523      0.00000
     28      14.2030      0.00000
     29      14.9555      0.00000
     30      15.4815      0.00000
     31      16.0922      0.00000
     32      16.6940      0.00000

 k-point     7 :       0.0000    0.5000    0.5000
  band No.  band energies     occupation 
      1     -12.2544      1.00000
      2      -7.4191      1.00000
      3      -6.1594      1.00000
      4      -3.6847      1.00000
      5      -2.8751      1.00000
      6      -1.6515      1.00000
      7      -0.8551      1.00000
      8       0.7769      1.00000
      9       1.2779      1.00000
     10       2.6632      1.00000
     11       3.5923      1.00000
     12       3.9223      1.00000
     13       4.3280      1.00000
     14       4.9230      1.00000
     15       5.4357      1.00000
     16       6.2213      1.00000
     17       6.7978      0.00000
     18       7.6583      0.00000
     19       8.1755      0.00000
     20       8.7268      0.00000
     21       9.6587      0.00000
     22      10.0515      0.00000
     23      10.9383      0.00000
     24      11.4110      0.00000
     25      11.7297      0.00000
     26      12.1634      0.00000
     27      13.1405      0.00000
     28      13.4369      0.00000
     29      13.8020      0.00000
     30      14.4331      0.00000
     31      15.3496      0.00000
     32      16.4287      0.00000

 k-point     8 :       0.3333    0.5000    0.5000
  band No.  band energies     occupation 
      1     -11.7843      1.00000
      2      -6.4164      1.00000
      3      -5.5990      1.00000
      4      -4.2848      1.00000
      5      -2.9089      1.00000
      6      -2.2646      1.00000
      7      -1.0062      1.00000
      8      -0.8829      1.00000
      9       0.4073      1.00000
     10       1.5883      1.00000
     11       2.4835      1.00000
     12       3.7258      1.00000
     13       4.2525      1.00000
     14       4.5150      1.00000
     15       5.8111      1.00000
     16       6.4566      1.00000
     17       7.4202      0.00000
     18       7.7853      0.00000
     19       8.3987      0.00000
     20       8.6693      0.00000
     21       9.3403      0.00000
     22       9.9698      0.00000
     23      10.6715      0.00000
     24      11.3934      0.00000
     25      12.2044      0.00000
     26      12.5659      0.00000
     27      12.9534      0.00000
     28      14.0099      0.00000
     29      14.5412      0.00000
     30      15.2558      0.00000
     31      15.6091      0.00000
     32      15.7849      0.00000


--------------------------------------------------------------------------------------------------------


 soft charge-density along one line, spin component           1
         0         1         2         3         4         5         6         7         8         9
 total charge-density along one line
 
 soft charge-density along one line, spin component           2
         0         1         2         3         4         5         6         7         8         9
 total charge-density along one line
 
 pseudopotential strength for first ion, spin component:           1
  9.591  12.741  -0.002   0.002   0.002   0.007  -0.006  -0.005
 12.741  16.923  -0.002   0.002   0.002   0.009  -0.008  -0.007
 -0.002  -0.002  -3.809   0.002   0.002   7.465  -0.003  -0.003
  0.002   0.002   0.002  -3.808   0.003  -0.003   7.463  -0.005
  0.002   0.002   0.002   0.003  -3.811  -0.003  -0.005   7.468
  0.007   0.009   7.465  -0.003  -0.003 -16.732   0.004   0.004
 -0.006  -0.008  -0.003   7.463  -0.005   0.004 -16.730   0.008
 -0.005  -0.007  -0.003  -0.005   7.468   0.004   0.008 -16.738
 pseudopotential strength for first ion, spin component:           2
  9.591  12.741  -0.002   0.002   0.002   0.007  -0.006  -0.005
 12.741  16.923  -0.002   0.002   0.002   0.009  -0.008  -0.007
 -0.002  -0.002  -3.809   0.002   0.002   7.465  -0.003  -0.003
  0.002   0.002   0.002  -3.808   0.003  -0.003   7.463  -0.005
  0.002   0.002   0.002   0.003  -3.811  -0.003  -0.005   7.468
  0.007   0.009   7.465  -0.003  -0.003 -16.732   0.004   0.004
 -0.006  -0.008  -0.003   7.463  -0.005   0.004 -16.730   0.008
 -0.005  -0.007  -0.003  -0.005   7.468   0.004   0.008 -16.738
 total augmentation occupancy for first ion, spin component:           1
  5.321  -1.984  -0.182   0.156   0.119  -0.032   0.026   0.011
 -1.984   0.872   0.121  -0.112  -0.087   0.018  -0.015  -0.004
 -0.182   0.121   1.309  -0.076  -0.058   0.086  -0.006  -0.005
  0.156  -0.112  -0.076   1.231  -0.073  -0.006   0.079  -0.012
  0.119  -0.087  -0.058  -0.073   1.348  -0.005  -0.012   0.093
 -0.032   0.018   0.086  -0.006  -0.005   0.007  -0.001  -0.000
  0.026  -0.015  -0.006   0.079  -0.012  -0.001   0.006  -0.001
  0.011  -0.004  -0.005  -0.012   0.093  -0.000  -0.001   0.007
 total augmentation occupancy for first ion, spin component:           2
 -0.000   0.000  -0.000   0.000  -0.000  -0.000   0.000  -0.000
  0.000  -0.000   0.000  -0.000   0.000   0.000  -0.000   0.000
 -0.000   0.000  -0.000  -0.000  -0.000  -0.000  -0.000  -0.000
  0.000  -0.000  -0.000  -0.000   0.000  -0.000  -0.000   0.000
 -0.000   0.000  -0.000   0.000  -0.000  -0.000   0.000  -0.000
 -0.000   0.000  -0.000  -0.000  -0.000  -0.000  -0.000  -0.000
  0.000  -0.000  -0.000  -0.000   0.000  -0.000   0.000   0.000
 -0.000   0.000  -0.000   0.000  -0.000  -0.000   0.000  -0.000


------------------------ aborting loop because EDIFF is reached ----------------------------------------


 


 total charge     
 
# of ion       s       p       d       tot
------------------------------------------
    1        0.891   1.508   0.000   2.399
    2        0.907   1.782   0.000   2.688
    3        0.916   1.284   0.000   2.200
    4        0.956   1.798   0.000   2.754
    5        0.757   0.866   0.000   1.623
    6        0.769   0.800   0.000   1.569
    7        0.763   0.889   0.000   1.652
    8        0.813   0.743   0.000   1.557
--------------------------------------------------
tot          6.773   9.670   0.000  16.443
 


 magnetization (x)
 
# of ion       s       p       d       tot
------------------------------------------
    1       -0.000  -0.000   0.000  -0.000
    2        0.000  -0.000   0.000  -0.000
    3       -0.000  -0.000   0.000  -0.000
    4       -0.000  -0.000   0.000  -0.000
    5        0.000   0.000   0.000   0.000
    6        0.000   0.000   0.000   0.000
    7        0.000   0.000   0.000   0.000
    8        0.000   0.000   0.000   0.000
--------------------------------------------------
tot          0.000  -0.000   0.000  -0.000
 
    CHARGE:  cpu time    0.0310: real time    0.0319
    FORLOC:  cpu time    0.0010: real time    0.0010
    FORNL :  cpu time    0.1100: real time    0.1096
    STRESS:  cpu time    0.3829: real time    0.3837
    FORCOR:  cpu time    0.0180: real time    0.0178
    FORHAR:  cpu time    0.0020: real time    0.0023
    MIXING:  cpu time    0.0010: real time    0.0011
    OFIELD:  cpu time    0.0000: real time    0.0001

  FORCE on cell =-STRESS in cart. coord.  units (eV):
  Direction    XX          YY          ZZ          XY          YZ          ZX
  --------------------------------------------------------------------------------------
  Alpha Z    34.98917    34.98917    34.98917
  Ewald    -177.24401  -326.22997  -383.82026   -19.78530   -99.59932    -4.35607
  Hartree   174.10026    80.97685    14.90388    -6.93985   -48.38132     2.93228
  E(xc)    -110.11316  -109.70702  -110.06348    -0.08618    -0.36206    -0.03522
  Local    -404.34577  -156.99206   -31.55981    22.47940   140.16996    -0.44603
  n-local   150.95738   139.95084   146.82627    -1.86183     5.36225     1.02853
  augment   -24.96923   -24.36994   -24.52563    -0.14596    -0.14645    -0.01939
  Kinetic   362.80889   365.66677   360.03902     9.85616    -5.58180     0.12074
  Fock        0.00000     0.00000     0.00000     0.00000     0.00000     0.00000
  -------------------------------------------------------------------------------------
  Total       6.18353     4.28463     6.78916     3.51645    -8.53873    -0.77515
  in kB      93.53731    64.81295   102.69871    53.19280  -129.16422   -11.72561
  external pressure =       87.02 kB  Pullay stress =        0.00 kB


 VOLUME and BASIS-vectors are now :
 -----------------------------------------------------------------------------
  energy-cutoff  :      560.00
  volume of cell :      105.92
      direct lattice vectors                 reciprocal lattice vectors
     3.401614008  0.000000000  0.000000000     0.293978093 -0.026096706  0.045587164
     0.447659193  5.042858604  0.000000000     0.000000000  0.198300226 -0.145380818
    -0.555634072  4.526723202  6.174475060     0.000000000  0.000000000  0.161957088

  length of vectors
     3.401614008  5.062689172  7.676203127     0.298634135  0.245883228  0.161957088


 FORCES acting on ions
    electron-ion (+dipol)            ewald-force                    non-local-force                 convergence-correction
 -----------------------------------------------------------------------------------------------
   -.136E+01 -.279E+02 -.167E+02   -.183E+00 0.305E+02 0.151E+02   0.125E+01 -.152E+01 0.199E+01   0.141E-04 0.110E-04 -.470E-04
   -.218E+02 -.765E+02 0.794E+02   0.248E+02 0.893E+02 -.885E+02   -.304E+01 -.128E+01 -.367E+00   -.215E-04 0.504E-04 0.190E-04
   0.998E+01 -.562E+02 0.561E+02   -.128E+02 0.583E+02 -.534E+02   0.431E+01 -.426E+01 -.427E+01   0.690E-05 0.903E-04 -.529E-05
   0.293E+02 0.130E+03 -.367E+02   -.343E+02 -.147E+03 0.445E+02   -.742E+00 0.812E+01 -.222E+01   -.930E-05 -.454E-04 0.399E-04
   -.472E+01 -.190E+02 -.358E+02   0.370E+01 0.241E+02 0.404E+02   0.158E+01 -.362E+01 -.447E+01   -.320E-05 0.328E-04 -.207E-04
   0.540E+01 -.137E+02 -.583E+02   -.821E+01 0.131E+02 0.526E+02   0.339E+01 -.116E+00 0.817E+01   0.204E-05 0.782E-05 0.183E-04
   -.247E+02 0.176E+02 -.691E+02   0.227E+02 -.188E+02 0.729E+02   0.445E+01 -.322E+01 -.468E+00   0.646E-05 -.346E-04 0.704E-05
   -.278E+01 0.513E+02 0.835E+02   0.432E+01 -.496E+02 -.835E+02   -.578E+00 0.170E+00 -.852E+00   0.576E-06 -.215E-04 -.532E-05
 -----------------------------------------------------------------------------------------------
   -.106E+02 0.573E+01 0.247E+01   0.000E+00 -.284E-13 0.000E+00   0.106E+02 -.573E+01 -.247E+01   -.390E-05 0.908E-04 0.596E-05
 
 
 POSITION                                       TOTAL-FORCE (eV/Angst)
 -----------------------------------------------------------------------------------
      1.82496      4.51464      3.22347        -0.289998      1.101381      0.319818
      0.13094      2.44830      1.35961        -0.010774     11.522934     -9.462645
      2.34615      3.23600      0.32352         1.462677     -2.182638     -1.590634
      0.39957      6.49615      2.04904        -5.722826     -8.688747      5.560473
     -0.06906      3.51544      2.94117         0.556468      1.464657      0.111477
      1.05549      3.90437      4.82141         0.575821     -0.740623      2.531127
      2.00024      6.54067      2.74836         2.463391     -4.353604      3.362298
      0.46674      6.24150      6.01360         0.965242      1.876639     -0.831915
 -----------------------------------------------------------------------------------
    total drift:                               -0.000066      0.000060      0.000158


--------------------------------------------------------------------------------------------------------



  FREE ENERGIE OF THE ION-ELECTRON SYSTEM (eV)
  ---------------------------------------------------
  free  energy   TOTEN  =       -45.84496862 eV

  energy  without entropy=      -45.84491814  energy(sigma->0) =      -45.84494338
 


--------------------------------------------------------------------------------------------------------


    POTLOK:  cpu time    0.2860: real time    0.2865


--------------------------------------------------------------------------------------------------------


 writing wavefunctions
     LOOP+:  cpu time   18.1712: real time   18.2298
    4ORBIT:  cpu time    0.0000: real time    0.0000
 


 total charge     
 
# of ion       s       p       d       tot
------------------------------------------
    1        0.891   1.508   0.000   2.399
    2        0.907   1.782   0.000   2.688
    3        0.916   1.284   0.000   2.200
    4        0.956   1.798   0.000   2.754
    5        0.757   0.866   0.000   1.623
    6        0.769   0.800   0.000   1.569
    7        0.763   0.889   0.000   1.652
    8        0.813   0.743   0.000   1.557
--------------------------------------------------
tot          6.773   9.670   0.000  16.443
 


 magnetization (x)
 
# of ion       s       p       d       tot
------------------------------------------
    1       -0.000  -0.000   0.000  -0.000
    2        0.000  -0.000   0.000  -0.000
    3       -0.000  -0.000   0.000  -0.000
    4       -0.000  -0.000   0.000  -0.000
    5        0.000   0.000   0.000   0.000
    6        0.000   0.000   0.000   0.000
    7        0.000   0.000   0.000   0.000
    8        0.000   0.000   0.000   0.000
--------------------------------------------------
tot          0.000  -0.000   0.000  -0.000
 

 total amount of memory used by VASP MPI-rank0    44072. kBytes
=======================================================================

   base      :      30000. kBytes
   nonl-proj :       3704. kBytes
   fftplans  :       2078. kBytes
   grid      :       6562. kBytes
   one-center:         49. kBytes
   wavefun   :       1679. kBytes
 
  
  
 General timing and accounting informations for this job:
 ========================================================
  
                  Total CPU time used (sec):       19.769
                            User time (sec):       18.969
                          System time (sec):        0.800
                         Elapsed time (sec):       19.859
  
                   Maximum memory used (kb):       66756.
                   Average memory used (kb):           0.
  
                          Minor page faults:        15242
                          Major page faults:            0
                 Voluntary context switches:          750
