 vasp.5.4.4.18Apr17-6-g9f103f2a35 (build Sep 20 2017 14:02:52) complex          
  
 executed on             LinuxIFC date 2018.08.09  03:51:45
 running on   16 total cores
 distrk:  each k-point on   16 cores,    1 groups
 distr:  one band on NCORES_PER_BAND=   1 cores,   16 groups


--------------------------------------------------------------------------------------------------------


 INCAR:
 POTCAR:    PAW_PBE C 08Apr2002                   
 POTCAR:    PAW_PBE Si 05Jan2001                  

 ----------------------------------------------------------------------------- 
|                                                                             |
|           W    W    AA    RRRRR   N    N  II  N    N   GGGG   !!!           |
|           W    W   A  A   R    R  NN   N  II  NN   N  G    G  !!!           |
|           W    W  A    A  R    R  N N  N  II  N N  N  G       !!!           |
|           W WW W  AAAAAA  RRRRR   N  N N  II  N  N N  G  GGG   !            |
|           WW  WW  A    A  R   R   N   NN  II  N   NN  G    G                |
|           W    W  A    A  R    R  N    N  II  N    N   GGGG   !!!           |
|                                                                             |
|      For optimal performance we recommend to set                            |
|        NCORE= 4 - approx SQRT( number of cores)                             |
|      NCORE specifies how many cores store one orbital (NPAR=cpu/NCORE).     |
|      This setting can  greatly improve the performance of VASP for DFT.     |
|      The default,   NCORE=1            might be grossly inefficient         |
|      on modern multi-core architectures or massively parallel machines.     |
|      Do your own testing !!!!                                               |
|      Unfortunately you need to use the default for GW and RPA calculations. |
|      (for HF NCORE is supported but not extensively tested yet)             |
|                                                                             |
 ----------------------------------------------------------------------------- 

 POTCAR:    PAW_PBE C 08Apr2002                   
   VRHFIN =C: s2p2                                                              
   LEXCH  = PE                                                                  
   EATOM  =   147.1560 eV,   10.8157 Ry                                         
                                                                                
   TITEL  = PAW_PBE C 08Apr2002                                                 
   LULTRA =        F    use ultrasoft PP ?                                      
   IUNSCR =        1    unscreen: 0-lin 1-nonlin 2-no                           
   RPACOR =    1.200    partial core radius                                     
   POMASS =   12.011; ZVAL   =    4.000    mass and valenz                      
   RCORE  =    1.500    outmost cutoff radius                                   
   RWIGS  =    1.630; RWIGS  =    0.863    wigner-seitz radius (au A)           
   ENMAX  =  400.000; ENMIN  =  300.000 eV                                      
   ICORE  =        2    local potential                                         
   LCOR   =        T    correct aug charges                                     
   LPAW   =        T    paw PP                                                  
   EAUG   =  644.873                                                            
   DEXC   =    0.000                                                            
   RMAX   =    1.529    core radius for proj-oper                               
   RAUG   =    1.300    factor for augmentation sphere                          
   RDEP   =    1.501    radius for radial grids                                 
   RDEPT  =    1.300    core radius for aug-charge                              
                                                                                
   Atomic configuration                                                         
    4 entries                                                                   
     n  l   j            E        occ.                                          
     1  0  0.50      -273.3789   2.0000                                         
     2  0  0.50       -13.7508   2.0000                                         
     2  1  0.50        -5.2854   2.0000                                         
     3  2  1.50        -5.4423   0.0000                                         
   Description                                                                  
     l       E           TYP  RCUT    TYP  RCUT                                 
     0    -13.7508458     23  1.200                                             
     0     -8.2022199     23  1.200                                             
     1     -5.2854383     23  1.500                                             
     1     34.0145650     23  1.500                                             
     2     -5.4423304      7  1.500                                             
  local pseudopotential read in
  partial core-charges read in
  partial kinetic energy density read in
  atomic valenz-charges read in
  non local Contribution for L=           0  read in
    real space projection operators read in
  non local Contribution for L=           0  read in
    real space projection operators read in
  non local Contribution for L=           1  read in
    real space projection operators read in
  non local Contribution for L=           1  read in
    real space projection operators read in
    PAW grid and wavefunctions read in
 
   number of l-projection  operators is LMAX  =           4
   number of lm-projection operators is LMMAX =           8
 
 POTCAR:    PAW_PBE Si 05Jan2001                  
   VRHFIN =Si: s2p2                                                             
   LEXCH  = PE                                                                  
   EATOM  =   103.0669 eV,    7.5752 Ry                                         
                                                                                
   TITEL  = PAW_PBE Si 05Jan2001                                                
   LULTRA =        F    use ultrasoft PP ?                                      
   IUNSCR =        1    unscreen: 0-lin 1-nonlin 2-no                           
   RPACOR =    1.500    partial core radius                                     
   POMASS =   28.085; ZVAL   =    4.000    mass and valenz                      
   RCORE  =    1.900    outmost cutoff radius                                   
   RWIGS  =    2.480; RWIGS  =    1.312    wigner-seitz radius (au A)           
   ENMAX  =  245.345; ENMIN  =  184.009 eV                                      
   ICORE  =        2    local potential                                         
   LCOR   =        T    correct aug charges                                     
   LPAW   =        T    paw PP                                                  
   EAUG   =  322.069                                                            
   DEXC   =    0.000                                                            
   RMAX   =    1.950    core radius for proj-oper                               
   RAUG   =    1.300    factor for augmentation sphere                          
   RDEP   =    1.993    radius for radial grids                                 
   RDEPT  =    1.837    core radius for aug-charge                              
                                                                                
   Atomic configuration                                                         
    6 entries                                                                   
     n  l   j            E        occ.                                          
     1  0  0.50     -1785.8828   2.0000                                         
     2  0  0.50      -139.4969   2.0000                                         
     2  1  1.50       -95.5546   6.0000                                         
     3  0  0.50       -10.8127   2.0000                                         
     3  1  0.50        -4.0811   2.0000                                         
     3  2  1.50        -4.0817   0.0000                                         
   Description                                                                  
     l       E           TYP  RCUT    TYP  RCUT                                 
     0    -10.8127223     23  1.900                                             
     0     -7.6451159     23  1.900                                             
     1     -4.0811372     23  1.900                                             
     1      2.4879257     23  1.900                                             
     2     -4.0817478      7  1.900                                             
  local pseudopotential read in
  partial core-charges read in
  partial kinetic energy density read in
  atomic valenz-charges read in
  non local Contribution for L=           0  read in
    real space projection operators read in
  non local Contribution for L=           0  read in
    real space projection operators read in
  non local Contribution for L=           1  read in
    real space projection operators read in
  non local Contribution for L=           1  read in
    real space projection operators read in
    PAW grid and wavefunctions read in
 
   number of l-projection  operators is LMAX  =           4
   number of lm-projection operators is LMMAX =           8
 
  PAW_PBE C 08Apr2002                   :
 energy of atom  1       EATOM= -147.1560
 kinetic energy error for atom=    0.0065 (will be added to EATOM!!)
  PAW_PBE Si 05Jan2001                  :
 energy of atom  2       EATOM= -103.0669
 kinetic energy error for atom=    0.0004 (will be added to EATOM!!)
 
 
 POSCAR:  C Si                                   
  positions in direct lattice
  No initial velocities read in
 exchange correlation table for  LEXCH =        8
   RHO(1)=    0.500       N(1)  =     2000
   RHO(2)=  100.500       N(2)  =     4000
 


--------------------------------------------------------------------------------------------------------


 ion  position               nearest neighbor table
   1  0.953  0.117  0.545-   5 1.86   5 1.91   6 1.92   7 1.93
   2  0.851  0.677  0.036-   8 1.90   6 1.90   8 1.92   5 1.96
   3  0.289  0.172  0.039-   6 1.88   8 1.89   7 1.90   6 1.92
   4  0.534  0.610  0.530-   7 1.88   7 1.89   8 1.92   5 1.94
   5  0.527  0.887  0.413-   1 1.86   1 1.91   4 1.94   2 1.96   8 2.93   6 2.99   7 2.99   7 3.05
                             6 3.11
   6  0.840  0.284  0.921-   3 1.88   2 1.90   3 1.92   1 1.92   5 2.99   8 3.00   8 3.02   7 3.05
                             7 3.08   5 3.11
   7  0.089  0.380  0.413-   4 1.88   4 1.89   3 1.90   1 1.93   8 2.91   5 2.99   5 3.05   6 3.05
                             6 3.08   8 3.14
   8  0.422  0.776  0.905-   3 1.89   2 1.90   4 1.92   2 1.92   7 2.91   5 2.93   6 3.00   6 3.02
                             7 3.14
 
  LATTYP: Found a triclinic cell.
 ALAT       =     7.3338359139
 B/A-ratio  =     0.4196573782
 C/A-ratio  =     0.7373671448
 COS(alpha) =     0.0035277298
 COS(beta)  =     0.3467372085
 COS(gamma) =     0.6353203698
  
  Lattice vectors:
  
 A1 = (   4.6593353445,  -2.5264926372,  -5.0687846979)
 A2 = (   3.0776983518,   0.0000000000,   0.0000000000)
 A3 = (   0.0190770088,  -5.4076959988,   0.0000000000)


Analysis of symmetry for initial positions (statically):
=====================================================================
 Subroutine PRICEL returns:
 Original cell was already a primitive cell.
 

 Routine SETGRP: Setting up the symmetry group for a 
 triclinic supercell.


 Subroutine GETGRP returns: Found  1 space group operations
 (whereof  1 operations were pure point group operations)
 out of a pool of  2 trial point group operations.


The static configuration has the point symmetry C_1 .


Analysis of symmetry for dynamics (positions and initial velocities):
=====================================================================
 Subroutine PRICEL returns:
 Original cell was already a primitive cell.
 

 Routine SETGRP: Setting up the symmetry group for a 
 triclinic supercell.


 Subroutine GETGRP returns: Found  1 space group operations
 (whereof  1 operations were pure point group operations)
 out of a pool of  2 trial point group operations.


The dynamic configuration has the point symmetry C_1 .


Analysis of structural, dynamic, and magnetic symmetry:
=====================================================================
 Subroutine PRICEL returns:
 Original cell was already a primitive cell.
 

 Routine SETGRP: Setting up the symmetry group for a 
 triclinic supercell.


 Subroutine GETGRP returns: Found  1 space group operations
 (whereof  1 operations were pure point group operations)
 out of a pool of  2 trial point group operations.


The magnetic configuration has the point symmetry C_1 .


 Subroutine INISYM returns: Found  1 space group operations
 (whereof  1 operations are pure point group operations),
 and found     1 'primitive' translations

 
 
 KPOINTS: Automatic mesh                          

Automatic generation of k-mesh.
 generate k-points for:    7    4    4
Space group operators:
 irot       det(A)        alpha          n_x          n_y          n_z        tau_x        tau_y        tau_z
    1     1.000000     0.000000     1.000000     0.000000     0.000000     0.000000     0.000000     0.000000
 
 Subroutine IBZKPT returns following result:
 ===========================================
 
 Found     58 irreducible k-points:
 
 Following reciprocal coordinates:
            Coordinates               Weight
  0.000000  0.000000  0.000000      1.000000
  0.142857 -0.000000  0.000000      2.000000
  0.285714 -0.000000  0.000000      2.000000
  0.428571  0.000000 -0.000000      2.000000
  0.000000  0.250000  0.000000      2.000000
  0.142857  0.250000  0.000000      2.000000
  0.285714  0.250000  0.000000      2.000000
  0.428571  0.250000  0.000000      2.000000
 -0.428571  0.250000  0.000000      2.000000
 -0.285714  0.250000  0.000000      2.000000
 -0.142857  0.250000  0.000000      2.000000
  0.000000  0.500000  0.000000      1.000000
  0.142857  0.500000  0.000000      2.000000
  0.285714  0.500000  0.000000      2.000000
  0.428571  0.500000 -0.000000      2.000000
  0.000000  0.000000  0.250000      2.000000
  0.142857 -0.000000  0.250000      2.000000
  0.285714 -0.000000  0.250000      2.000000
  0.428571  0.000000  0.250000      2.000000
 -0.428571 -0.000000  0.250000      2.000000
 -0.285714  0.000000  0.250000      2.000000
 -0.142857  0.000000  0.250000      2.000000
  0.000000  0.250000  0.250000      2.000000
  0.142857  0.250000  0.250000      2.000000
  0.285714  0.250000  0.250000      2.000000
  0.428571  0.250000  0.250000      2.000000
 -0.428571  0.250000  0.250000      2.000000
 -0.285714  0.250000  0.250000      2.000000
 -0.142857  0.250000  0.250000      2.000000
  0.000000  0.500000  0.250000      2.000000
  0.142857  0.500000  0.250000      2.000000
  0.285714  0.500000  0.250000      2.000000
  0.428571  0.500000  0.250000      2.000000
 -0.428571  0.500000  0.250000      2.000000
 -0.285714  0.500000  0.250000      2.000000
 -0.142857  0.500000  0.250000      2.000000
  0.000000 -0.250000  0.250000      2.000000
  0.142857 -0.250000  0.250000      2.000000
  0.285714 -0.250000  0.250000      2.000000
  0.428571 -0.250000  0.250000      2.000000
 -0.428571 -0.250000  0.250000      2.000000
 -0.285714 -0.250000  0.250000      2.000000
 -0.142857 -0.250000  0.250000      2.000000
  0.000000  0.000000  0.500000      1.000000
  0.142857 -0.000000  0.500000      2.000000
  0.285714 -0.000000  0.500000      2.000000
  0.428571  0.000000  0.500000      2.000000
  0.000000  0.250000  0.500000      2.000000
  0.142857  0.250000  0.500000      2.000000
  0.285714  0.250000  0.500000      2.000000
  0.428571  0.250000  0.500000      2.000000
 -0.428571  0.250000  0.500000      2.000000
 -0.285714  0.250000  0.500000      2.000000
 -0.142857  0.250000  0.500000      2.000000
  0.000000  0.500000  0.500000      1.000000
  0.142857  0.500000  0.500000      2.000000
  0.285714  0.500000  0.500000      2.000000
  0.428571  0.500000  0.500000      2.000000
 
 Following cartesian coordinates:
            Coordinates               Weight
  0.000000  0.000000  0.000000      1.000000
  0.046417  0.000164 -0.013782      2.000000
  0.092834  0.000327 -0.027563      2.000000
  0.139251  0.000491 -0.041345      2.000000
  0.000000  0.046230  0.026278      2.000000
  0.046417  0.046394  0.012497      2.000000
  0.092834  0.046558 -0.001285      2.000000
  0.139251  0.046722 -0.015067      2.000000
 -0.139251  0.045739  0.067623      2.000000
 -0.092834  0.045903  0.053842      2.000000
 -0.046417  0.046067  0.040060      2.000000
  0.000000  0.092461  0.052557      1.000000
  0.046417  0.092625  0.038775      2.000000
  0.092834  0.092788  0.024993      2.000000
  0.139251  0.092952  0.011212      2.000000
  0.000000  0.000000  0.049321      2.000000
  0.046417  0.000164  0.035540      2.000000
  0.092834  0.000327  0.021758      2.000000
  0.139251  0.000491  0.007977      2.000000
 -0.139251 -0.000491  0.090666      2.000000
 -0.092834 -0.000327  0.076885      2.000000
 -0.046417 -0.000164  0.063103      2.000000
  0.000000  0.046230  0.075600      2.000000
  0.046417  0.046394  0.061818      2.000000
  0.092834  0.046558  0.048037      2.000000
  0.139251  0.046722  0.034255      2.000000
 -0.139251  0.045739  0.116945      2.000000
 -0.092834  0.045903  0.103163      2.000000
 -0.046417  0.046067  0.089381      2.000000
  0.000000  0.092461  0.101878      2.000000
  0.046417  0.092625  0.088097      2.000000
  0.092834  0.092788  0.074315      2.000000
  0.139251  0.092952  0.060533      2.000000
 -0.139251  0.091970  0.143223      2.000000
 -0.092834  0.092133  0.129441      2.000000
 -0.046417  0.092297  0.115660      2.000000
  0.000000 -0.046230  0.023043      2.000000
  0.046417 -0.046067  0.009262      2.000000
  0.092834 -0.045903 -0.004520      2.000000
  0.139251 -0.045739 -0.018302      2.000000
 -0.139251 -0.046722  0.064388      2.000000
 -0.092834 -0.046558  0.050606      2.000000
 -0.046417 -0.046394  0.036825      2.000000
  0.000000  0.000000  0.098643      1.000000
  0.046417  0.000164  0.084861      2.000000
  0.092834  0.000327  0.071080      2.000000
  0.139251  0.000491  0.057298      2.000000
  0.000000  0.046230  0.124921      2.000000
  0.046417  0.046394  0.111140      2.000000
  0.092834  0.046558  0.097358      2.000000
  0.139251  0.046722  0.083576      2.000000
 -0.139251  0.045739  0.166266      2.000000
 -0.092834  0.045903  0.152485      2.000000
 -0.046417  0.046067  0.138703      2.000000
  0.000000  0.092461  0.151200      1.000000
  0.046417  0.092625  0.137418      2.000000
  0.092834  0.092788  0.123636      2.000000
  0.139251  0.092952  0.109855      2.000000
 


--------------------------------------------------------------------------------------------------------




 Dimension of arrays:
   k-points           NKPTS =     58   k-points in BZ     NKDIM =     58   number of bands    NBANDS=     32
   number of dos      NEDOS =    301   number of ions     NIONS =      8
   non local maximal  LDIM  =      4   non local SUM 2l+1 LMDIM =      8
   total plane-waves  NPLWV =  48384
   max r-space proj   IRMAX =      1   max aug-charges    IRDMAX=  60118
   dimension x,y,z NGX =    24 NGY =   42 NGZ =   48
   dimension x,y,z NGXF=    36 NGYF=   60 NGZF=   70
   support grid    NGXF=    72 NGYF=  120 NGZF=  140
   ions per type =               4   4
   NGX,Y,Z   is equivalent  to a cutoff of  12.96, 12.91, 13.25 a.u.
   NGXF,Y,Z  is equivalent  to a cutoff of  19.45, 18.45, 19.32 a.u.

 SYSTEM =  TEST                                    
 POSCAR =   C Si                                   

 Startparameter for this run:
   NWRITE =      2    write-flag & timer
   PREC   = high      normal or accurate (medium, high low for compatibility)
   ISTART =      0    job   : 0-new  1-cont  2-samecut
   ICHARG =      2    charge: 1-file 2-atom 10-const
   ISPIN  =      2    spin polarized calculation?
   LNONCOLLINEAR =      F non collinear calculations
   LSORBIT =      F    spin-orbit coupling
   INIWAV =      1    electr: 0-lowe 1-rand  2-diag
   LASPH  =      T    aspherical Exc in radial PAW
   METAGGA=      F    non-selfconsistent MetaGGA calc.

 Electronic Relaxation 1
   ENCUT  =  560.0 eV  41.16 Ry    6.42 a.u.   5.94 10.43 11.62*2*pi/ulx,y,z
   ENINI  =  560.0     initial cutoff
   ENAUG  =  644.9 eV  augmentation charge cutoff
   NELM   =    100;   NELMIN=  8; NELMDL= -5     # of ELM steps 
   EDIFF  = 0.1E-07   stopping-criterion for ELM
   LREAL  =      F    real-space projection
   NLSPLINE    = F    spline interpolate recip. space projectors
   LCOMPAT=      F    compatible to vasp.4.4
   GGA_COMPAT  = T    GGA compatible to vasp.4.4-vasp.4.6
   LMAXPAW     = -100 max onsite density
   LMAXMIX     =    4 max onsite mixed and CHGCAR
   VOSKOWN=      0    Vosko Wilk Nusair interpolation
   ROPT   =    0.00000   0.00000
 Ionic relaxation
   EDIFFG = -.1E-04   stopping-criterion for IOM
   NSW    =      0    number of steps for IOM
   NBLOCK =      1;   KBLOCK =      1    inner block; outer block 
   IBRION =     -1    ionic relax: 0-MD 1-quasi-New 2-CG
   NFREE  =      0    steps in history (QN), initial steepest desc. (CG)
   ISIF   =      2    stress and relaxation
   IWAVPR =     10    prediction:  0-non 1-charg 2-wave 3-comb
   ISYM   =      2    0-nonsym 1-usesym 2-fastsym
   LCORR  =      T    Harris-Foulkes like correction to forces

   POTIM  = 0.5000    time-step for ionic-motion
   TEIN   =    0.0    initial temperature
   TEBEG  =    0.0;   TEEND  =   0.0 temperature during run
   SMASS  =  -3.00    Nose mass-parameter (am)
   estimated Nose-frequenzy (Omega)   =  0.10E-29 period in steps =****** mass=  -0.216E-27a.u.
   SCALEE = 1.0000    scale energy and forces
   NPACO  =    256;   APACO  = 16.0  distance and # of slots for P.C.
   PSTRESS=    0.0 pullay stress

  Mass of Ions in am
   POMASS =  12.01 28.09
  Ionic Valenz
   ZVAL   =   4.00  4.00
  Atomic Wigner-Seitz radii
   RWIGS  =  -1.00 -1.00
  virtual crystal weights 
   VCA    =   1.00  1.00
   NELECT =      32.0000    total number of electrons
   NUPDOWN=      -1.0000    fix difference up-down

 DOS related values:
   EMIN   =  10.00;   EMAX   =-10.00  energy-range for DOS
   EFERMI =   0.00
   ISMEAR =     0;   SIGMA  =   0.02  broadening in eV -4-tet -1-fermi 0-gaus

 Electronic relaxation 2 (details)
   IALGO  =     38    algorithm
   LDIAG  =      T    sub-space diagonalisation (order eigenvalues)
   LSUBROT=      F    optimize rotation matrix (better conditioning)
   TURBO    =      0    0=normal 1=particle mesh
   IRESTART =      0    0=no restart 2=restart with 2 vectors
   NREBOOT  =      0    no. of reboots
   NMIN     =      0    reboot dimension
   EREF     =   0.00    reference energy to select bands
   IMIX   =      4    mixing-type and parameters
     AMIX     =   0.40;   BMIX     =  1.00
     AMIX_MAG =   1.60;   BMIX_MAG =  1.00
     AMIN     =   0.10
     WC   =   100.;   INIMIX=   1;  MIXPRE=   1;  MAXMIX= -45

 Intra band minimization:
   WEIMIN = 0.0000     energy-eigenvalue tresh-hold
   EBREAK =  0.78E-10  absolut break condition
   DEPER  =   0.30     relativ break condition  

   TIME   =   0.40     timestep for ELM

  volume/ion in A,a.u.               =      10.55        71.16
  Fermi-wavevector in a.u.,A,eV,Ry     =   1.185070  2.239458 19.107907  1.404392
  Thomas-Fermi vector in A             =   2.321272
 
 Write flags
   LWAVE        =      T    write WAVECAR
   LDOWNSAMPLE  =      F    k-point downsampling of WAVECAR
   LCHARG       =      T    write CHGCAR
   LVTOT        =      F    write LOCPOT, total local potential
   LVHAR        =      F    write LOCPOT, Hartree potential only
   LELF         =      F    write electronic localiz. function (ELF)
   LORBIT       =     11    0 simple, 1 ext, 2 COOP (PROOUT), +10 PAW based schemes


 Dipole corrections
   LMONO  =      F    monopole corrections only (constant potential shift)
   LDIPOL =      F    correct potential (dipole corrections)
   IDIPOL =      0    1-x, 2-y, 3-z, 4-all directions 
   EPSILON=  1.0000000 bulk dielectric constant

 Exchange correlation treatment:
   GGA     =    --    GGA type
   LEXCH   =     8    internal setting for exchange type
   VOSKOWN=      0    Vosko Wilk Nusair interpolation
   LHFCALC =     F    Hartree Fock is set to
   LHFONE  =     F    Hartree Fock one center treatment
   AEXX    =    0.0000 exact exchange contribution

 Linear response parameters
   LEPSILON=     F    determine dielectric tensor
   LRPA    =     F    only Hartree local field effects (RPA)
   LNABLA  =     F    use nabla operator in PAW spheres
   LVEL    =     F    velocity operator in full k-point grid
   LINTERFAST=   F  fast interpolation
   KINTER  =     0    interpolate to denser k-point grid
   CSHIFT  =0.1000    complex shift for real part using Kramers Kronig
   OMEGAMAX=  -1.0    maximum frequency
   DEG_THRESHOLD= 0.2000000E-02 threshold for treating states as degnerate
   RTIME   =   -0.100 relaxation time in fs
  (WPLASMAI=    0.000 imaginary part of plasma frequency in eV, 0.658/RTIME)
   DFIELD  = 0.0000000 0.0000000 0.0000000 field for delta impulse in time
 
 Orbital magnetization related:
   ORBITALMAG=     F  switch on orbital magnetization
   LCHIMAG   =     F  perturbation theory with respect to B field
   DQ        =  0.001000  dq finite difference perturbation B field
   LLRAUG    =     F  two centre corrections for induced B field



--------------------------------------------------------------------------------------------------------


 Static calculation
 charge density and potential will be updated during run
 spin polarized calculation
 Variant of blocked Davidson
 Davidson routine will perform the subspace rotation
 perform sub-space diagonalisation
    after iterative eigenvector-optimisation
 modified Broyden-mixing scheme, WC =      100.0
 initial mixing is a Kerker type mixing with AMIX =  0.4000 and BMIX =      1.0000
 Hartree-type preconditioning will be used
 using additional bands           16
 reciprocal scheme for non local part
 use partial core corrections
 calculate Harris-corrections to forces 
   (improved forces if not selfconsistent)
 use gradient corrections 
 use of overlap-Matrix (Vanderbilt PP)
 Gauss-broadening in eV      SIGMA  =   0.02


--------------------------------------------------------------------------------------------------------


  energy-cutoff  :      560.00
  volume of cell :       84.36
      direct lattice vectors                 reciprocal lattice vectors
     3.077698352  0.000000000  0.000000000     0.324918132  0.001146230 -0.096471528
    -0.019077009  5.407695999  0.000000000     0.000000000  0.184921638  0.105113331
     1.515138368 -2.881203362  5.068784698     0.000000000  0.000000000  0.197285949

  length of vectors
     3.077698352  5.407729648  6.024081291     0.338939319  0.212708308  0.197285949


 
 k-points in units of 2pi/SCALE and weight: Automatic mesh                          
   0.00000000  0.00000000  0.00000000       0.009
   0.04641688  0.00016375 -0.01378165       0.018
   0.09283375  0.00032749 -0.02756329       0.018
   0.13925063  0.00049124 -0.04134494       0.018
   0.00000000  0.04623041  0.02627833       0.018
   0.04641688  0.04639416  0.01249669       0.018
   0.09283375  0.04655790 -0.00128496       0.018
   0.13925063  0.04672165 -0.01506661       0.018
  -0.13925063  0.04573917  0.06762327       0.018
  -0.09283375  0.04590291  0.05384163       0.018
  -0.04641688  0.04606666  0.04005998       0.018
   0.00000000  0.09246082  0.05255667       0.009
   0.04641688  0.09262457  0.03877502       0.018
   0.09283375  0.09278831  0.02499337       0.018
   0.13925063  0.09295206  0.01121172       0.018
   0.00000000  0.00000000  0.04932149       0.018
   0.04641688  0.00016375  0.03553984       0.018
   0.09283375  0.00032749  0.02175819       0.018
   0.13925063  0.00049124  0.00797655       0.018
  -0.13925063 -0.00049124  0.09066643       0.018
  -0.09283375 -0.00032749  0.07688478       0.018
  -0.04641688 -0.00016375  0.06310313       0.018
   0.00000000  0.04623041  0.07559982       0.018
   0.04641688  0.04639416  0.06181817       0.018
   0.09283375  0.04655790  0.04803653       0.018
   0.13925063  0.04672165  0.03425488       0.018
  -0.13925063  0.04573917  0.11694476       0.018
  -0.09283375  0.04590291  0.10316311       0.018
  -0.04641688  0.04606666  0.08938147       0.018
   0.00000000  0.09246082  0.10187815       0.018
   0.04641688  0.09262457  0.08809651       0.018
   0.09283375  0.09278831  0.07431486       0.018
   0.13925063  0.09295206  0.06053321       0.018
  -0.13925063  0.09196958  0.14322309       0.018
  -0.09283375  0.09213332  0.12944145       0.018
  -0.04641688  0.09229707  0.11565980       0.018
   0.00000000 -0.04623041  0.02304315       0.018
   0.04641688 -0.04606666  0.00926151       0.018
   0.09283375 -0.04590291 -0.00452014       0.018
   0.13925063 -0.04573917 -0.01830179       0.018
  -0.13925063 -0.04672165  0.06438810       0.018
  -0.09283375 -0.04655790  0.05060645       0.018
  -0.04641688 -0.04639416  0.03682480       0.018
   0.00000000  0.00000000  0.09864297       0.009
   0.04641688  0.00016375  0.08486133       0.018
   0.09283375  0.00032749  0.07107968       0.018
   0.13925063  0.00049124  0.05729803       0.018
   0.00000000  0.04623041  0.12492131       0.018
   0.04641688  0.04639416  0.11113966       0.018
   0.09283375  0.04655790  0.09735801       0.018
   0.13925063  0.04672165  0.08357637       0.018
  -0.13925063  0.04573917  0.16626625       0.018
  -0.09283375  0.04590291  0.15248460       0.018
  -0.04641688  0.04606666  0.13870295       0.018
   0.00000000  0.09246082  0.15119964       0.009
   0.04641688  0.09262457  0.13741799       0.018
   0.09283375  0.09278831  0.12363635       0.018
   0.13925063  0.09295206  0.10985470       0.018
 
 k-points in reciprocal lattice and weights: Automatic mesh                          
   0.00000000  0.00000000  0.00000000       0.009
   0.14285714 -0.00000000  0.00000000       0.018
   0.28571429 -0.00000000  0.00000000       0.018
   0.42857143  0.00000000 -0.00000000       0.018
   0.00000000  0.25000000  0.00000000       0.018
   0.14285714  0.25000000  0.00000000       0.018
   0.28571429  0.25000000  0.00000000       0.018
   0.42857143  0.25000000  0.00000000       0.018
  -0.42857143  0.25000000  0.00000000       0.018
  -0.28571429  0.25000000  0.00000000       0.018
  -0.14285714  0.25000000  0.00000000       0.018
   0.00000000  0.50000000  0.00000000       0.009
   0.14285714  0.50000000  0.00000000       0.018
   0.28571429  0.50000000  0.00000000       0.018
   0.42857143  0.50000000 -0.00000000       0.018
   0.00000000  0.00000000  0.25000000       0.018
   0.14285714 -0.00000000  0.25000000       0.018
   0.28571429 -0.00000000  0.25000000       0.018
   0.42857143  0.00000000  0.25000000       0.018
  -0.42857143 -0.00000000  0.25000000       0.018
  -0.28571429  0.00000000  0.25000000       0.018
  -0.14285714  0.00000000  0.25000000       0.018
   0.00000000  0.25000000  0.25000000       0.018
   0.14285714  0.25000000  0.25000000       0.018
   0.28571429  0.25000000  0.25000000       0.018
   0.42857143  0.25000000  0.25000000       0.018
  -0.42857143  0.25000000  0.25000000       0.018
  -0.28571429  0.25000000  0.25000000       0.018
  -0.14285714  0.25000000  0.25000000       0.018
   0.00000000  0.50000000  0.25000000       0.018
   0.14285714  0.50000000  0.25000000       0.018
   0.28571429  0.50000000  0.25000000       0.018
   0.42857143  0.50000000  0.25000000       0.018
  -0.42857143  0.50000000  0.25000000       0.018
  -0.28571429  0.50000000  0.25000000       0.018
  -0.14285714  0.50000000  0.25000000       0.018
   0.00000000 -0.25000000  0.25000000       0.018
   0.14285714 -0.25000000  0.25000000       0.018
   0.28571429 -0.25000000  0.25000000       0.018
   0.42857143 -0.25000000  0.25000000       0.018
  -0.42857143 -0.25000000  0.25000000       0.018
  -0.28571429 -0.25000000  0.25000000       0.018
  -0.14285714 -0.25000000  0.25000000       0.018
   0.00000000  0.00000000  0.50000000       0.009
   0.14285714 -0.00000000  0.50000000       0.018
   0.28571429 -0.00000000  0.50000000       0.018
   0.42857143  0.00000000  0.50000000       0.018
   0.00000000  0.25000000  0.50000000       0.018
   0.14285714  0.25000000  0.50000000       0.018
   0.28571429  0.25000000  0.50000000       0.018
   0.42857143  0.25000000  0.50000000       0.018
  -0.42857143  0.25000000  0.50000000       0.018
  -0.28571429  0.25000000  0.50000000       0.018
  -0.14285714  0.25000000  0.50000000       0.018
   0.00000000  0.50000000  0.50000000       0.009
   0.14285714  0.50000000  0.50000000       0.018
   0.28571429  0.50000000  0.50000000       0.018
   0.42857143  0.50000000  0.50000000       0.018
 
 position of ions in fractional coordinates (direct lattice) 
   0.95296074  0.11696823  0.54540028
   0.85104395  0.67729503  0.03638910
   0.28893584  0.17217327  0.03907632
   0.53431701  0.61005494  0.53018519
   0.52733209  0.88659156  0.41262020
   0.84009854  0.28384802  0.92080248
   0.08860534  0.37983550  0.41330260
   0.42160874  0.77636065  0.90500660
 
 position of ions in cartesian coordinates  (Angst):
   3.75705118 -0.93888051  2.76451658
   2.66147031  3.55776121  0.18444851
   0.94517884  0.81847389  0.19806947
   2.43613249  1.77142030  2.68739457
   2.23123229  3.60557495  2.09148294
   3.97529810 -1.11805543  4.66734954
   0.89166502  0.86322606  2.09494191
   2.65398410  1.59081431  4.58728362
 


--------------------------------------------------------------------------------------------------------


 k-point  1 :   0.0000 0.0000 0.0000  plane waves:    2537
 k-point  2 :   0.1429-0.0000 0.0000  plane waves:    2531
 k-point  3 :   0.2857-0.0000 0.0000  plane waves:    2551
 k-point  4 :   0.4286 0.0000-0.0000  plane waves:    2557
 k-point  5 :   0.0000 0.2500 0.0000  plane waves:    2535
 k-point  6 :   0.1429 0.2500 0.0000  plane waves:    2533
 k-point  7 :   0.2857 0.2500 0.0000  plane waves:    2550
 k-point  8 :   0.4286 0.2500 0.0000  plane waves:    2548
 k-point  9 :  -0.4286 0.2500 0.0000  plane waves:    2547
 k-point 10 :  -0.2857 0.2500 0.0000  plane waves:    2529
 k-point 11 :  -0.1429 0.2500 0.0000  plane waves:    2530
 k-point 12 :   0.0000 0.5000 0.0000  plane waves:    2536
 k-point 13 :   0.1429 0.5000 0.0000  plane waves:    2535
 k-point 14 :   0.2857 0.5000 0.0000  plane waves:    2538
 k-point 15 :   0.4286 0.5000-0.0000  plane waves:    2540
 k-point 16 :   0.0000 0.0000 0.2500  plane waves:    2521
 k-point 17 :   0.1429-0.0000 0.2500  plane waves:    2539
 k-point 18 :   0.2857-0.0000 0.2500  plane waves:    2554
 k-point 19 :   0.4286 0.0000 0.2500  plane waves:    2553
 k-point 20 :  -0.4286-0.0000 0.2500  plane waves:    2550
 k-point 21 :  -0.2857 0.0000 0.2500  plane waves:    2545
 k-point 22 :  -0.1429 0.0000 0.2500  plane waves:    2525
 k-point 23 :   0.0000 0.2500 0.2500  plane waves:    2517
 k-point 24 :   0.1429 0.2500 0.2500  plane waves:    2532
 k-point 25 :   0.2857 0.2500 0.2500  plane waves:    2533
 k-point 26 :   0.4286 0.2500 0.2500  plane waves:    2546
 k-point 27 :  -0.4286 0.2500 0.2500  plane waves:    2555
 k-point 28 :  -0.2857 0.2500 0.2500  plane waves:    2538
 k-point 29 :  -0.1429 0.2500 0.2500  plane waves:    2535
 k-point 30 :   0.0000 0.5000 0.2500  plane waves:    2529
 k-point 31 :   0.1429 0.5000 0.2500  plane waves:    2534
 k-point 32 :   0.2857 0.5000 0.2500  plane waves:    2534
 k-point 33 :   0.4286 0.5000 0.2500  plane waves:    2532
 k-point 34 :  -0.4286 0.5000 0.2500  plane waves:    2542
 k-point 35 :  -0.2857 0.5000 0.2500  plane waves:    2544
 k-point 36 :  -0.1429 0.5000 0.2500  plane waves:    2531
 k-point 37 :   0.0000-0.2500 0.2500  plane waves:    2530
 k-point 38 :   0.1429-0.2500 0.2500  plane waves:    2536
 k-point 39 :   0.2857-0.2500 0.2500  plane waves:    2549
 k-point 40 :   0.4286-0.2500 0.2500  plane waves:    2547
 k-point 41 :  -0.4286-0.2500 0.2500  plane waves:    2555
 k-point 42 :  -0.2857-0.2500 0.2500  plane waves:    2537
 k-point 43 :  -0.1429-0.2500 0.2500  plane waves:    2522
 k-point 44 :   0.0000 0.0000 0.5000  plane waves:    2524
 k-point 45 :   0.1429-0.0000 0.5000  plane waves:    2528
 k-point 46 :   0.2857-0.0000 0.5000  plane waves:    2548
 k-point 47 :   0.4286 0.0000 0.5000  plane waves:    2555
 k-point 48 :   0.0000 0.2500 0.5000  plane waves:    2526
 k-point 49 :   0.1429 0.2500 0.5000  plane waves:    2536
 k-point 50 :   0.2857 0.2500 0.5000  plane waves:    2542
 k-point 51 :   0.4286 0.2500 0.5000  plane waves:    2540
 k-point 52 :  -0.4286 0.2500 0.5000  plane waves:    2545
 k-point 53 :  -0.2857 0.2500 0.5000  plane waves:    2541
 k-point 54 :  -0.1429 0.2500 0.5000  plane waves:    2530
 k-point 55 :   0.0000 0.5000 0.5000  plane waves:    2516
 k-point 56 :   0.1429 0.5000 0.5000  plane waves:    2525
 k-point 57 :   0.2857 0.5000 0.5000  plane waves:    2544
 k-point 58 :   0.4286 0.5000 0.5000  plane waves:    2537

 maximum and minimum number of plane-waves per node :      2557     2516

 maximum number of plane-waves:      2557
 maximum index in each direction: 
   IXMAX=    6   IYMAX=   10   IZMAX=   11
   IXMIN=   -6   IYMIN=  -10   IZMIN=  -12


 serial   3D FFT for wavefunctions
 parallel 3D FFT for charge:
    minimum data exchange during FFTs selected (reduces bandwidth)


 total amount of memory used by VASP MPI-rank0    65826. kBytes
=======================================================================

   base      :      30000. kBytes
   nonl-proj :      19333. kBytes
   fftplans  :       1770. kBytes
   grid      :       4934. kBytes
   one-center:         49. kBytes
   wavefun   :       9740. kBytes
 
     INWAV:  cpu time    0.0010: real time    0.0001
 Broyden mixing: mesh for mixing (old mesh)
   NGX = 11   NGY = 21   NGZ = 23
  (NGX  = 36   NGY  = 60   NGZ  = 70)
  gives a total of   5313 points

 initial charge density was supplied:
 charge density of overlapping atoms calculated
 number of electron      32.0000000 magnetization       8.0000000
 keeping initial charge density in first step


--------------------------------------------------------------------------------------------------------


 Maximum index for augmentation-charges         4495 (set IRDMAX)


--------------------------------------------------------------------------------------------------------


 First call to EWALD:  gamma=   0.404
 Maximum number of real-space cells 4x 3x 2
 Maximum number of reciprocal cells 2x 3x 4

    FEWALD:  cpu time    0.0020: real time    0.0018


--------------------------------------- Iteration      1(   1)  ---------------------------------------


    POTLOK:  cpu time    0.0190: real time    0.0198
    SETDIJ:  cpu time    0.2670: real time    0.2664
     EDDAV:  cpu time    2.6966: real time    2.7133
       DOS:  cpu time    0.0010: real time    0.0010
    --------------------------------------------
      LOOP:  cpu time    2.9835: real time    3.0006

 eigenvalue-minimisations  :  7424
 total energy-change (2. order) : 0.5343324E+02  (-0.1562442E+04)
 number of electron      32.0000000 magnetization       8.0000000
 augmentation part       32.0000000 magnetization       8.0000000

 Free energy of the ion-electron system (eV)
  ---------------------------------------------------
  alpha Z        PSCENC =        43.92920055
  Ewald energy   TEWEN  =     -1133.40156430
  -Hartree energ DENC   =       -84.56749186
  -exchange      EXHF   =         0.00000000
  -V(xc)+E(xc)   XCENC  =        19.11701198
  PAW double counting   =       785.71187468     -717.55646816
  entropy T*S    EENTRO =        -0.00024300
  eigenvalues    EBANDS =       139.33674317
  atomic energy  EATOM  =      1000.86417562
  Solvation  Ediel_sol  =         0.00000000
  ---------------------------------------------------
  free energy    TOTEN  =        53.43323869 eV

  energy without entropy =       53.43348169  energy(sigma->0) =       53.43336019


--------------------------------------------------------------------------------------------------------




--------------------------------------- Iteration      1(   2)  ---------------------------------------


     EDDAV:  cpu time    3.6624: real time    3.6654
       DOS:  cpu time    0.0010: real time    0.0006
    --------------------------------------------
      LOOP:  cpu time    3.6634: real time    3.6660

 eigenvalue-minimisations  : 10704
 total energy-change (2. order) :-0.1122199E+03  (-0.1031523E+03)
 number of electron      32.0000000 magnetization       8.0000000
 augmentation part       32.0000000 magnetization       8.0000000

 Free energy of the ion-electron system (eV)
  ---------------------------------------------------
  alpha Z        PSCENC =        43.92920055
  Ewald energy   TEWEN  =     -1133.40156430
  -Hartree energ DENC   =       -84.56749186
  -exchange      EXHF   =         0.00000000
  -V(xc)+E(xc)   XCENC  =        19.11701198
  PAW double counting   =       785.71187468     -717.55646816
  entropy T*S    EENTRO =        -0.00000000
  eigenvalues    EBANDS =        27.11655317
  atomic energy  EATOM  =      1000.86417562
  Solvation  Ediel_sol  =         0.00000000
  ---------------------------------------------------
  free energy    TOTEN  =       -58.78670831 eV

  energy without entropy =      -58.78670831  energy(sigma->0) =      -58.78670831


--------------------------------------------------------------------------------------------------------




--------------------------------------- Iteration      1(   3)  ---------------------------------------


     EDDAV:  cpu time    3.5435: real time    3.5702
       DOS:  cpu time    0.0010: real time    0.0006
    --------------------------------------------
      LOOP:  cpu time    3.5445: real time    3.5708

 eigenvalue-minimisations  :  9952
 total energy-change (2. order) :-0.4905422E+01  (-0.4885398E+01)
 number of electron      32.0000000 magnetization       8.0000000
 augmentation part       32.0000000 magnetization       8.0000000

 Free energy of the ion-electron system (eV)
  ---------------------------------------------------
  alpha Z        PSCENC =        43.92920055
  Ewald energy   TEWEN  =     -1133.40156430
  -Hartree energ DENC   =       -84.56749186
  -exchange      EXHF   =         0.00000000
  -V(xc)+E(xc)   XCENC  =        19.11701198
  PAW double counting   =       785.71187468     -717.55646816
  entropy T*S    EENTRO =        -0.00000000
  eigenvalues    EBANDS =        22.21113089
  atomic energy  EATOM  =      1000.86417562
  Solvation  Ediel_sol  =         0.00000000
  ---------------------------------------------------
  free energy    TOTEN  =       -63.69213059 eV

  energy without entropy =      -63.69213059  energy(sigma->0) =      -63.69213059


--------------------------------------------------------------------------------------------------------




--------------------------------------- Iteration      1(   4)  ---------------------------------------


     EDDAV:  cpu time    3.3335: real time    3.3486
       DOS:  cpu time    0.0010: real time    0.0006
    --------------------------------------------
      LOOP:  cpu time    3.3345: real time    3.3493

 eigenvalue-minimisations  :  9600
 total energy-change (2. order) :-0.3655618E-01  (-0.3655040E-01)
 number of electron      32.0000000 magnetization       8.0000000
 augmentation part       32.0000000 magnetization       8.0000000

 Free energy of the ion-electron system (eV)
  ---------------------------------------------------
  alpha Z        PSCENC =        43.92920055
  Ewald energy   TEWEN  =     -1133.40156430
  -Hartree energ DENC   =       -84.56749186
  -exchange      EXHF   =         0.00000000
  -V(xc)+E(xc)   XCENC  =        19.11701198
  PAW double counting   =       785.71187468     -717.55646816
  entropy T*S    EENTRO =        -0.00000000
  eigenvalues    EBANDS =        22.17457471
  atomic energy  EATOM  =      1000.86417562
  Solvation  Ediel_sol  =         0.00000000
  ---------------------------------------------------
  free energy    TOTEN  =       -63.72868677 eV

  energy without entropy =      -63.72868677  energy(sigma->0) =      -63.72868677


--------------------------------------------------------------------------------------------------------




--------------------------------------- Iteration      1(   5)  ---------------------------------------


     EDDAV:  cpu time    3.4065: real time    3.4098
       DOS:  cpu time    0.0000: real time    0.0006
    CHARGE:  cpu time    0.1010: real time    0.1010
    MIXING:  cpu time    0.0010: real time    0.0008
    --------------------------------------------
      LOOP:  cpu time    3.5085: real time    3.5122

 eigenvalue-minimisations  :  9872
 total energy-change (2. order) :-0.3725022E-03  (-0.3724932E-03)
 number of electron      32.0000000 magnetization       0.2461865
 augmentation part       -0.2061988 magnetization       0.2756715

 Broyden mixing:
  rms(total) = 0.19997E+01    rms(broyden)= 0.19996E+01
  rms(prec ) = 0.33781E+01
  weight for this iteration     100.00

 Free energy of the ion-electron system (eV)
  ---------------------------------------------------
  alpha Z        PSCENC =        43.92920055
  Ewald energy   TEWEN  =     -1133.40156430
  -Hartree energ DENC   =       -84.56749186
  -exchange      EXHF   =         0.00000000
  -V(xc)+E(xc)   XCENC  =        19.11701198
  PAW double counting   =       785.71187468     -717.55646816
  entropy T*S    EENTRO =        -0.00000000
  eigenvalues    EBANDS =        22.17420221
  atomic energy  EATOM  =      1000.86417562
  Solvation  Ediel_sol  =         0.00000000
  ---------------------------------------------------
  free energy    TOTEN  =       -63.72905927 eV

  energy without entropy =      -63.72905927  energy(sigma->0) =      -63.72905927


--------------------------------------------------------------------------------------------------------




--------------------------------------- Iteration      1(   6)  ---------------------------------------


    POTLOK:  cpu time    0.0160: real time    0.0160
    SETDIJ:  cpu time    0.2660: real time    0.2659
     EDDAV:  cpu time    3.3905: real time    3.4013
       DOS:  cpu time    0.0000: real time    0.0006
    CHARGE:  cpu time    0.1010: real time    0.1007
    MIXING:  cpu time    0.0000: real time    0.0006
    --------------------------------------------
      LOOP:  cpu time    3.7734: real time    3.7851

 eigenvalue-minimisations  :  9920
 total energy-change (2. order) : 0.4229452E+01  (-0.1324429E+01)
 number of electron      32.0000000 magnetization      -0.0323560
 augmentation part       -0.4465424 magnetization      -0.0360980

 Broyden mixing:
  rms(total) = 0.81576E+00    rms(broyden)= 0.81573E+00
  rms(prec ) = 0.10484E+01
  weight for this iteration     100.00

 eigenvalues of (default mixing * dielectric matrix)
  average eigenvalue GAMMA=   0.9558
  0.9558

 Free energy of the ion-electron system (eV)
  ---------------------------------------------------
  alpha Z        PSCENC =        43.92920055
  Ewald energy   TEWEN  =     -1133.40156430
  -Hartree energ DENC   =      -115.65637144
  -exchange      EXHF   =         0.00000000
  -V(xc)+E(xc)   XCENC  =        20.66801913
  PAW double counting   =      1798.28627561    -1730.56761385
  entropy T*S    EENTRO =        -0.00000000
  eigenvalues    EBANDS =        56.37827176
  atomic energy  EATOM  =      1000.86417562
  Solvation  Ediel_sol  =         0.00000000
  ---------------------------------------------------
  free energy    TOTEN  =       -59.49960692 eV

  energy without entropy =      -59.49960692  energy(sigma->0) =      -59.49960692


--------------------------------------------------------------------------------------------------------




--------------------------------------- Iteration      1(   7)  ---------------------------------------


    POTLOK:  cpu time    0.0160: real time    0.0160
    SETDIJ:  cpu time    0.2670: real time    0.2660
     EDDAV:  cpu time    3.6974: real time    3.7086
       DOS:  cpu time    0.0010: real time    0.0006
    CHARGE:  cpu time    0.1000: real time    0.1004
    MIXING:  cpu time    0.0000: real time    0.0005
    --------------------------------------------
      LOOP:  cpu time    4.0814: real time    4.0920

 eigenvalue-minimisations  : 10720
 total energy-change (2. order) :-0.1196037E-02  (-0.2246530E+00)
 number of electron      32.0000000 magnetization      -0.0031508
 augmentation part       -0.5115052 magnetization      -0.0031153

 Broyden mixing:
  rms(total) = 0.41674E+00    rms(broyden)= 0.41672E+00
  rms(prec ) = 0.51923E+00
  weight for this iteration     100.00

 eigenvalues of (default mixing * dielectric matrix)
  average eigenvalue GAMMA=   0.9638
  1.1794  0.7482

 Free energy of the ion-electron system (eV)
  ---------------------------------------------------
  alpha Z        PSCENC =        43.92920055
  Ewald energy   TEWEN  =     -1133.40156430
  -Hartree energ DENC   =      -123.81969233
  -exchange      EXHF   =         0.00000000
  -V(xc)+E(xc)   XCENC  =        21.46546628
  PAW double counting   =      2908.40975804    -2840.86189709
  entropy T*S    EENTRO =        -0.00000000
  eigenvalues    EBANDS =        63.91375027
  atomic energy  EATOM  =      1000.86417562
  Solvation  Ediel_sol  =         0.00000000
  ---------------------------------------------------
  free energy    TOTEN  =       -59.50080296 eV

  energy without entropy =      -59.50080296  energy(sigma->0) =      -59.50080296


--------------------------------------------------------------------------------------------------------




--------------------------------------- Iteration      1(   8)  ---------------------------------------


    POTLOK:  cpu time    0.0160: real time    0.0160
    SETDIJ:  cpu time    0.2670: real time    0.2663
     EDDAV:  cpu time    2.9136: real time    2.9247
       DOS:  cpu time    0.0010: real time    0.0006
    CHARGE:  cpu time    0.1000: real time    0.1004
    MIXING:  cpu time    0.0010: real time    0.0006
    --------------------------------------------
      LOOP:  cpu time    3.2985: real time    3.3087

 eigenvalue-minimisations  :  8336
 total energy-change (2. order) : 0.2741890E-01  (-0.9513645E-02)
 number of electron      32.0000000 magnetization       0.0102370
 augmentation part       -0.5057012 magnetization       0.0099101

 Broyden mixing:
  rms(total) = 0.25678E+00    rms(broyden)= 0.25678E+00
  rms(prec ) = 0.31378E+00
  weight for this iteration     100.00

 eigenvalues of (default mixing * dielectric matrix)
  average eigenvalue GAMMA=   1.1215
  1.7474  1.0075  0.6096

 Free energy of the ion-electron system (eV)
  ---------------------------------------------------
  alpha Z        PSCENC =        43.92920055
  Ewald energy   TEWEN  =     -1133.40156430
  -Hartree energ DENC   =      -124.94503196
  -exchange      EXHF   =         0.00000000
  -V(xc)+E(xc)   XCENC  =        21.65452709
  PAW double counting   =      3349.08191632    -3281.59884334
  entropy T*S    EENTRO =        -0.00000000
  eigenvalues    EBANDS =        64.94223596
  atomic energy  EATOM  =      1000.86417562
  Solvation  Ediel_sol  =         0.00000000
  ---------------------------------------------------
  free energy    TOTEN  =       -59.47338406 eV

  energy without entropy =      -59.47338406  energy(sigma->0) =      -59.47338406


--------------------------------------------------------------------------------------------------------




--------------------------------------- Iteration      1(   9)  ---------------------------------------


    POTLOK:  cpu time    0.0160: real time    0.0160
    SETDIJ:  cpu time    0.2670: real time    0.2675
     EDDAV:  cpu time    3.7674: real time    3.7691
       DOS:  cpu time    0.0010: real time    0.0005
    CHARGE:  cpu time    0.0990: real time    0.1003
    MIXING:  cpu time    0.0010: real time    0.0007
    --------------------------------------------
      LOOP:  cpu time    4.1514: real time    4.1541

 eigenvalue-minimisations  : 10880
 total energy-change (2. order) : 0.1614830E-01  (-0.2109992E-02)
 number of electron      32.0000000 magnetization      -0.0009372
 augmentation part       -0.4984032 magnetization      -0.0007558

 Broyden mixing:
  rms(total) = 0.61679E-01    rms(broyden)= 0.61679E-01
  rms(prec ) = 0.87018E-01
  weight for this iteration     100.00

 eigenvalues of (default mixing * dielectric matrix)
  average eigenvalue GAMMA=   1.2346
  2.3068  1.1203  0.9147  0.5966

 Free energy of the ion-electron system (eV)
  ---------------------------------------------------
  alpha Z        PSCENC =        43.92920055
  Ewald energy   TEWEN  =     -1133.40156430
  -Hartree energ DENC   =      -126.34602273
  -exchange      EXHF   =         0.00000000
  -V(xc)+E(xc)   XCENC  =        21.87215308
  PAW double counting   =      3766.74197466    -3699.31591316
  entropy T*S    EENTRO =        -0.00000000
  eigenvalues    EBANDS =        66.19876050
  atomic energy  EATOM  =      1000.86417562
  Solvation  Ediel_sol  =         0.00000000
  ---------------------------------------------------
  free energy    TOTEN  =       -59.45723577 eV

  energy without entropy =      -59.45723577  energy(sigma->0) =      -59.45723577


--------------------------------------------------------------------------------------------------------




--------------------------------------- Iteration      1(  10)  ---------------------------------------


    POTLOK:  cpu time    0.0160: real time    0.0160
    SETDIJ:  cpu time    0.2670: real time    0.2664
     EDDAV:  cpu time    3.2795: real time    3.2902
       DOS:  cpu time    0.0010: real time    0.0006
    CHARGE:  cpu time    0.1000: real time    0.1006
    MIXING:  cpu time    0.0010: real time    0.0007
    --------------------------------------------
      LOOP:  cpu time    3.6644: real time    3.6744

 eigenvalue-minimisations  :  9504
 total energy-change (2. order) :-0.1473220E-02  (-0.5890454E-03)
 number of electron      32.0000000 magnetization      -0.0008476
 augmentation part       -0.4992321 magnetization      -0.0009653

 Broyden mixing:
  rms(total) = 0.16980E-01    rms(broyden)= 0.16979E-01
  rms(prec ) = 0.22508E-01
  weight for this iteration     100.00

 eigenvalues of (default mixing * dielectric matrix)
  average eigenvalue GAMMA=   1.1689
  2.3860  1.0309  1.0309  0.7891  0.6078

 Free energy of the ion-electron system (eV)
  ---------------------------------------------------
  alpha Z        PSCENC =        43.92920055
  Ewald energy   TEWEN  =     -1133.40156430
  -Hartree energ DENC   =      -127.29916837
  -exchange      EXHF   =         0.00000000
  -V(xc)+E(xc)   XCENC  =        21.98756202
  PAW double counting   =      3914.04269671    -3846.63135875
  entropy T*S    EENTRO =        -0.00000000
  eigenvalues    EBANDS =        67.04974752
  atomic energy  EATOM  =      1000.86417562
  Solvation  Ediel_sol  =         0.00000000
  ---------------------------------------------------
  free energy    TOTEN  =       -59.45870898 eV

  energy without entropy =      -59.45870898  energy(sigma->0) =      -59.45870898


--------------------------------------------------------------------------------------------------------




--------------------------------------- Iteration      1(  11)  ---------------------------------------


    POTLOK:  cpu time    0.0160: real time    0.0163
    SETDIJ:  cpu time    0.2670: real time    0.2666
     EDDAV:  cpu time    3.4985: real time    3.5102
       DOS:  cpu time    0.0010: real time    0.0006
    CHARGE:  cpu time    0.1010: real time    0.1007
    MIXING:  cpu time    0.0000: real time    0.0006
    --------------------------------------------
      LOOP:  cpu time    3.8834: real time    3.8950

 eigenvalue-minimisations  : 10176
 total energy-change (2. order) :-0.2710088E-03  (-0.8029907E-04)
 number of electron      32.0000000 magnetization       0.0004048
 augmentation part       -0.5004293 magnetization       0.0003616

 Broyden mixing:
  rms(total) = 0.10705E-01    rms(broyden)= 0.10705E-01
  rms(prec ) = 0.12925E-01
  weight for this iteration     100.00

 eigenvalues of (default mixing * dielectric matrix)
  average eigenvalue GAMMA=   1.2251
  2.4084  1.5615  1.0995  0.9692  0.6177  0.6946

 Free energy of the ion-electron system (eV)
  ---------------------------------------------------
  alpha Z        PSCENC =        43.92920055
  Ewald energy   TEWEN  =     -1133.40156430
  -Hartree energ DENC   =      -127.46212927
  -exchange      EXHF   =         0.00000000
  -V(xc)+E(xc)   XCENC  =        22.00395795
  PAW double counting   =      3912.04165168    -3844.62742469
  entropy T*S    EENTRO =        -0.00000000
  eigenvalues    EBANDS =        67.19315246
  atomic energy  EATOM  =      1000.86417562
  Solvation  Ediel_sol  =         0.00000000
  ---------------------------------------------------
  free energy    TOTEN  =       -59.45897999 eV

  energy without entropy =      -59.45897999  energy(sigma->0) =      -59.45897999


--------------------------------------------------------------------------------------------------------




--------------------------------------- Iteration      1(  12)  ---------------------------------------


    POTLOK:  cpu time    0.0160: real time    0.0160
    SETDIJ:  cpu time    0.2680: real time    0.2672
     EDDAV:  cpu time    3.2315: real time    3.2422
       DOS:  cpu time    0.0000: real time    0.0006
    CHARGE:  cpu time    0.1010: real time    0.1009
    MIXING:  cpu time    0.0010: real time    0.0007
    --------------------------------------------
      LOOP:  cpu time    3.6175: real time    3.6276

 eigenvalue-minimisations  :  9344
 total energy-change (2. order) :-0.1534460E-03  (-0.1458786E-04)
 number of electron      32.0000000 magnetization       0.0002855
 augmentation part       -0.5007342 magnetization       0.0003170

 Broyden mixing:
  rms(total) = 0.42781E-02    rms(broyden)= 0.42781E-02
  rms(prec ) = 0.53681E-02
  weight for this iteration     100.00

 eigenvalues of (default mixing * dielectric matrix)
  average eigenvalue GAMMA=   1.3322
  2.6960  2.4800  1.0094  1.0094  0.8562  0.6354  0.6387

 Free energy of the ion-electron system (eV)
  ---------------------------------------------------
  alpha Z        PSCENC =        43.92920055
  Ewald energy   TEWEN  =     -1133.40156430
  -Hartree energ DENC   =      -127.50638849
  -exchange      EXHF   =         0.00000000
  -V(xc)+E(xc)   XCENC  =        22.00955479
  PAW double counting   =      3896.17289860    -3828.75467170
  entropy T*S    EENTRO =        -0.00000000
  eigenvalues    EBANDS =        67.22766147
  atomic energy  EATOM  =      1000.86417562
  Solvation  Ediel_sol  =         0.00000000
  ---------------------------------------------------
  free energy    TOTEN  =       -59.45913344 eV

  energy without entropy =      -59.45913344  energy(sigma->0) =      -59.45913344


--------------------------------------------------------------------------------------------------------




--------------------------------------- Iteration      1(  13)  ---------------------------------------


    POTLOK:  cpu time    0.0160: real time    0.0160
    SETDIJ:  cpu time    0.2670: real time    0.2671
     EDDAV:  cpu time    3.5215: real time    3.5275
       DOS:  cpu time    0.0000: real time    0.0005
    CHARGE:  cpu time    0.1010: real time    0.1006
    MIXING:  cpu time    0.0000: real time    0.0007
    --------------------------------------------
      LOOP:  cpu time    3.9054: real time    3.9124

 eigenvalue-minimisations  : 10192
 total energy-change (2. order) :-0.1995151E-04  (-0.2516440E-05)
 number of electron      32.0000000 magnetization      -0.0000106
 augmentation part       -0.5006133 magnetization      -0.0000123

 Broyden mixing:
  rms(total) = 0.13633E-02    rms(broyden)= 0.13633E-02
  rms(prec ) = 0.17754E-02
  weight for this iteration     100.00

 eigenvalues of (default mixing * dielectric matrix)
  average eigenvalue GAMMA=   1.2805
  2.7315  2.5198  1.0060  1.0060  0.9304  0.8006  0.6250  0.6250

 Free energy of the ion-electron system (eV)
  ---------------------------------------------------
  alpha Z        PSCENC =        43.92920055
  Ewald energy   TEWEN  =     -1133.40156430
  -Hartree energ DENC   =      -127.50402604
  -exchange      EXHF   =         0.00000000
  -V(xc)+E(xc)   XCENC  =        22.01024068
  PAW double counting   =      3887.74608726    -3820.32668013
  entropy T*S    EENTRO =        -0.00000000
  eigenvalues    EBANDS =        67.22341296
  atomic energy  EATOM  =      1000.86417562
  Solvation  Ediel_sol  =         0.00000000
  ---------------------------------------------------
  free energy    TOTEN  =       -59.45915339 eV

  energy without entropy =      -59.45915339  energy(sigma->0) =      -59.45915339


--------------------------------------------------------------------------------------------------------




--------------------------------------- Iteration      1(  14)  ---------------------------------------


    POTLOK:  cpu time    0.0160: real time    0.0160
    SETDIJ:  cpu time    0.2670: real time    0.2668
     EDDAV:  cpu time    3.1765: real time    3.1868
       DOS:  cpu time    0.0000: real time    0.0006
    CHARGE:  cpu time    0.1000: real time    0.1008
    MIXING:  cpu time    0.0020: real time    0.0008
    --------------------------------------------
      LOOP:  cpu time    3.5615: real time    3.5718

 eigenvalue-minimisations  :  9136
 total energy-change (2. order) :-0.1328042E-05  (-0.4301942E-06)
 number of electron      32.0000000 magnetization      -0.0000530
 augmentation part       -0.5005196 magnetization      -0.0000601

 Broyden mixing:
  rms(total) = 0.59916E-03    rms(broyden)= 0.59904E-03
  rms(prec ) = 0.79289E-03
  weight for this iteration     100.00

 eigenvalues of (default mixing * dielectric matrix)
  average eigenvalue GAMMA=   1.2855
  2.7344  2.5282  1.1422  1.1422  1.0561  0.9546  0.7535  0.6290  0.6290

 Free energy of the ion-electron system (eV)
  ---------------------------------------------------
  alpha Z        PSCENC =        43.92920055
  Ewald energy   TEWEN  =     -1133.40156430
  -Hartree energ DENC   =      -127.50403403
  -exchange      EXHF   =         0.00000000
  -V(xc)+E(xc)   XCENC  =        22.01027539
  PAW double counting   =      3885.95470112    -3818.53559625
  entropy T*S    EENTRO =        -0.00000000
  eigenvalues    EBANDS =        67.22368716
  atomic energy  EATOM  =      1000.86417562
  Solvation  Ediel_sol  =         0.00000000
  ---------------------------------------------------
  free energy    TOTEN  =       -59.45915472 eV

  energy without entropy =      -59.45915472  energy(sigma->0) =      -59.45915472


--------------------------------------------------------------------------------------------------------




--------------------------------------- Iteration      1(  15)  ---------------------------------------


    POTLOK:  cpu time    0.0160: real time    0.0163
    SETDIJ:  cpu time    0.2680: real time    0.2674
     EDDAV:  cpu time    3.5225: real time    3.5331
       DOS:  cpu time    0.0000: real time    0.0006
    CHARGE:  cpu time    0.1000: real time    0.1009
    MIXING:  cpu time    0.0020: real time    0.0008
    --------------------------------------------
      LOOP:  cpu time    3.9084: real time    3.9190

 eigenvalue-minimisations  : 10160
 total energy-change (2. order) :-0.7780536E-06  (-0.8220425E-07)
 number of electron      32.0000000 magnetization      -0.0000091
 augmentation part       -0.5004877 magnetization      -0.0000058

 Broyden mixing:
  rms(total) = 0.19534E-03    rms(broyden)= 0.19505E-03
  rms(prec ) = 0.24367E-03
  weight for this iteration     100.00

 eigenvalues of (default mixing * dielectric matrix)
  average eigenvalue GAMMA=   1.2881
  2.7771  2.4897  1.6704  1.0890  1.0890  0.9516  0.8420  0.7144  0.6289  0.6289

 Free energy of the ion-electron system (eV)
  ---------------------------------------------------
  alpha Z        PSCENC =        43.92920055
  Ewald energy   TEWEN  =     -1133.40156430
  -Hartree energ DENC   =      -127.50831542
  -exchange      EXHF   =         0.00000000
  -V(xc)+E(xc)   XCENC  =        22.01054458
  PAW double counting   =      3884.82432068    -3817.40560750
  entropy T*S    EENTRO =        -0.00000000
  eigenvalues    EBANDS =        67.22809029
  atomic energy  EATOM  =      1000.86417562
  Solvation  Ediel_sol  =         0.00000000
  ---------------------------------------------------
  free energy    TOTEN  =       -59.45915550 eV

  energy without entropy =      -59.45915550  energy(sigma->0) =      -59.45915550


--------------------------------------------------------------------------------------------------------




--------------------------------------- Iteration      1(  16)  ---------------------------------------


    POTLOK:  cpu time    0.0160: real time    0.0164
    SETDIJ:  cpu time    0.2670: real time    0.2668
     EDDAV:  cpu time    3.2505: real time    3.2616
       DOS:  cpu time    0.0010: real time    0.0006
    CHARGE:  cpu time    0.1000: real time    0.1007
    MIXING:  cpu time    0.0010: real time    0.0009
    --------------------------------------------
      LOOP:  cpu time    3.6354: real time    3.6469

 eigenvalue-minimisations  :  9360
 total energy-change (2. order) :-0.2121124E-06  (-0.1340716E-07)
 number of electron      32.0000000 magnetization       0.0000018
 augmentation part       -0.5004781 magnetization       0.0000024

 Broyden mixing:
  rms(total) = 0.91378E-04    rms(broyden)= 0.90770E-04
  rms(prec ) = 0.11298E-03
  weight for this iteration     100.00

 eigenvalues of (default mixing * dielectric matrix)
  average eigenvalue GAMMA=   1.2874
  2.8208  2.4319  2.0323  1.0946  1.0946  0.9923  0.9923  0.7854  0.6718  0.6162
  0.6294

 Free energy of the ion-electron system (eV)
  ---------------------------------------------------
  alpha Z        PSCENC =        43.92920055
  Ewald energy   TEWEN  =     -1133.40156430
  -Hartree energ DENC   =      -127.50931856
  -exchange      EXHF   =         0.00000000
  -V(xc)+E(xc)   XCENC  =        22.01060312
  PAW double counting   =      3884.71074407    -3817.29213027
  entropy T*S    EENTRO =        -0.00000000
  eigenvalues    EBANDS =        67.22913405
  atomic energy  EATOM  =      1000.86417562
  Solvation  Ediel_sol  =         0.00000000
  ---------------------------------------------------
  free energy    TOTEN  =       -59.45915571 eV

  energy without entropy =      -59.45915571  energy(sigma->0) =      -59.45915571


--------------------------------------------------------------------------------------------------------




--------------------------------------- Iteration      1(  17)  ---------------------------------------


    POTLOK:  cpu time    0.0160: real time    0.0160
    SETDIJ:  cpu time    0.2670: real time    0.2670
     EDDAV:  cpu time    3.0705: real time    3.0723
       DOS:  cpu time    0.0000: real time    0.0006
    CHARGE:  cpu time    0.1010: real time    0.1006
    MIXING:  cpu time    0.0010: real time    0.0008
    --------------------------------------------
      LOOP:  cpu time    3.4555: real time    3.4573

 eigenvalue-minimisations  :  8256
 total energy-change (2. order) :-0.4566937E-07  (-0.1025179E-08)
 number of electron      32.0000000 magnetization       0.0000001
 augmentation part       -0.5004764 magnetization       0.0000005

 Broyden mixing:
  rms(total) = 0.59813E-04    rms(broyden)= 0.58883E-04
  rms(prec ) = 0.72709E-04
  weight for this iteration     100.00

 eigenvalues of (default mixing * dielectric matrix)
  average eigenvalue GAMMA=   1.3154
  2.8320  2.3945  2.1531  1.4768  1.1360  1.1360  0.9925  0.9595  0.7878  0.6714
  0.6159  0.6288

 Free energy of the ion-electron system (eV)
  ---------------------------------------------------
  alpha Z        PSCENC =        43.92920055
  Ewald energy   TEWEN  =     -1133.40156430
  -Hartree energ DENC   =      -127.50956978
  -exchange      EXHF   =         0.00000000
  -V(xc)+E(xc)   XCENC  =        22.01061495
  PAW double counting   =      3884.79213903    -3817.37353898
  entropy T*S    EENTRO =        -0.00000000
  eigenvalues    EBANDS =        67.22938713
  atomic energy  EATOM  =      1000.86417562
  Solvation  Ediel_sol  =         0.00000000
  ---------------------------------------------------
  free energy    TOTEN  =       -59.45915576 eV

  energy without entropy =      -59.45915576  energy(sigma->0) =      -59.45915576


--------------------------------------------------------------------------------------------------------




--------------------------------------- Iteration      1(  18)  ---------------------------------------


    POTLOK:  cpu time    0.0160: real time    0.0160
    SETDIJ:  cpu time    0.2680: real time    0.2678
     EDDAV:  cpu time    2.7356: real time    2.7465
       DOS:  cpu time    0.0010: real time    0.0006
    CHARGE:  cpu time    0.1000: real time    0.1004
    MIXING:  cpu time    0.0010: real time    0.0010
    --------------------------------------------
      LOOP:  cpu time    3.1215: real time    3.1323

 eigenvalue-minimisations  :  7280
 total energy-change (2. order) :-0.2424576E-07  (-0.8010683E-09)
 number of electron      32.0000000 magnetization      -0.0000002
 augmentation part       -0.5004768 magnetization      -0.0000001

 Broyden mixing:
  rms(total) = 0.20696E-04    rms(broyden)= 0.17830E-04
  rms(prec ) = 0.20981E-04
  weight for this iteration     100.00
  WARNING: grid for Broyden might be to small

 eigenvalues of (default mixing * dielectric matrix)
  average eigenvalue GAMMA=   1.3513
  2.8754  2.5563  2.5563  1.9854  1.0861  1.0861  1.0078  0.9964  0.7938  0.7002
  0.6818  0.6206  0.6206

 Free energy of the ion-electron system (eV)
  ---------------------------------------------------
  alpha Z        PSCENC =        43.92920055
  Ewald energy   TEWEN  =     -1133.40156430
  -Hartree energ DENC   =      -127.50994433
  -exchange      EXHF   =         0.00000000
  -V(xc)+E(xc)   XCENC  =        22.01063247
  PAW double counting   =      3884.93606564    -3817.51746979
  entropy T*S    EENTRO =        -0.00000000
  eigenvalues    EBANDS =        67.22974835
  atomic energy  EATOM  =      1000.86417562
  Solvation  Ediel_sol  =         0.00000000
  ---------------------------------------------------
  free energy    TOTEN  =       -59.45915578 eV

  energy without entropy =      -59.45915578  energy(sigma->0) =      -59.45915578


--------------------------------------------------------------------------------------------------------




--------------------------------------- Iteration      1(  19)  ---------------------------------------


    POTLOK:  cpu time    0.0160: real time    0.0160
    SETDIJ:  cpu time    0.2670: real time    0.2670
     EDDAV:  cpu time    2.5296: real time    2.5311
       DOS:  cpu time    0.0000: real time    0.0006
    --------------------------------------------
      LOOP:  cpu time    2.8126: real time    2.8147

 eigenvalue-minimisations  :  6368
 total energy-change (2. order) :-0.1296030E-09  (-0.1011367E-09)
 number of electron      32.0000000 magnetization      -0.0000002
 augmentation part       -0.5004768 magnetization      -0.0000001

 Free energy of the ion-electron system (eV)
  ---------------------------------------------------
  alpha Z        PSCENC =        43.92920055
  Ewald energy   TEWEN  =     -1133.40156430
  -Hartree energ DENC   =      -127.51002441
  -exchange      EXHF   =         0.00000000
  -V(xc)+E(xc)   XCENC  =        22.01063611
  PAW double counting   =      3884.96755248    -3817.54895519
  entropy T*S    EENTRO =        -0.00000000
  eigenvalues    EBANDS =        67.22982336
  atomic energy  EATOM  =      1000.86417562
  Solvation  Ediel_sol  =         0.00000000
  ---------------------------------------------------
  free energy    TOTEN  =       -59.45915578 eV

  energy without entropy =      -59.45915578  energy(sigma->0) =      -59.45915578


--------------------------------------------------------------------------------------------------------




 average (electrostatic) potential at core
  the test charge radii are     0.6991  0.9892
  (the norm of the test charge is              1.0000)
       1 -45.0988       2 -45.1150       3 -45.0335       4 -45.0632       5 -80.7393
       6 -80.6540       7 -80.6235       8 -80.6912
 
 
 
 E-fermi :   8.4246     XC(G=0): -11.2891     alpha+bet :-16.1244


 spin component 1

 k-point     1 :       0.0000    0.0000    0.0000
  band No.  band energies     occupation 
      1      -7.3607      1.00000
      2      -3.8354      1.00000
      3      -3.4171      1.00000
      4      -3.1949      1.00000
      5      -0.5036      1.00000
      6      -0.2428      1.00000
      7      -0.0223      1.00000
      8       5.3999      1.00000
      9       5.6646      1.00000
     10       5.9347      1.00000
     11       6.3013      1.00000
     12       6.7050      1.00000
     13       6.8573      1.00000
     14       7.7666      1.00000
     15       8.0305      1.00000
     16       8.3351      1.00000
     17      11.1178      0.00000
     18      11.2858      0.00000
     19      12.5344      0.00000
     20      13.0322      0.00000
     21      13.5657      0.00000
     22      13.6341      0.00000
     23      14.1846      0.00000
     24      15.2406      0.00000
     25      15.3902      0.00000
     26      16.4790      0.00000
     27      16.9651      0.00000
     28      17.5678      0.00000
     29      18.1001      0.00000
     30      18.8227      0.00000
     31      19.3994      0.00000
     32      19.7512      0.00000

 k-point     2 :       0.1429   -0.0000    0.0000
  band No.  band energies     occupation 
      1      -7.0719      1.00000
      2      -3.7173      1.00000
      3      -3.3220      1.00000
      4      -2.9274      1.00000
      5      -0.1250      1.00000
      6      -0.0968      1.00000
      7       0.2942      1.00000
      8       3.9785      1.00000
      9       4.5306      1.00000
     10       5.4786      1.00000
     11       5.8080      1.00000
     12       6.1887      1.00000
     13       6.5356      1.00000
     14       7.0540      1.00000
     15       7.6904      1.00000
     16       8.1108      1.00000
     17      11.6564      0.00000
     18      12.5083      0.00000
     19      13.0912      0.00000
     20      13.8052      0.00000
     21      13.9647      0.00000
     22      14.2515      0.00000
     23      14.7191      0.00000
     24      15.2430      0.00000
     25      15.5253      0.00000
     26      15.9706      0.00000
     27      16.3178      0.00000
     28      17.2536      0.00000
     29      17.5265      0.00000
     30      17.7714      0.00000
     31      18.8751      0.00000
     32      19.8680      0.00000

 k-point     3 :       0.2857   -0.0000    0.0000
  band No.  band energies     occupation 
      1      -6.2242      1.00000
      2      -3.3340      1.00000
      3      -2.9368      1.00000
      4      -2.5805      1.00000
      5       0.4185      1.00000
      6       0.6424      1.00000
      7       0.8892      1.00000
      8       2.1326      1.00000
      9       3.2256      1.00000
     10       3.5215      1.00000
     11       4.4734      1.00000
     12       5.5846      1.00000
     13       5.7495      1.00000
     14       6.3479      1.00000
     15       6.8208      1.00000
     16       7.4866      1.00000
     17      12.2554      0.00000
     18      12.9244      0.00000
     19      13.1272      0.00000
     20      13.6585      0.00000
     21      13.8434      0.00000
     22      14.5127      0.00000
     23      14.8351      0.00000
     24      15.2387      0.00000
     25      16.2175      0.00000
     26      16.4731      0.00000
     27      17.7496      0.00000
     28      17.8941      0.00000
     29      18.1358      0.00000
     30      18.6359      0.00000
     31      19.3538      0.00000
     32      19.7781      0.00000

 k-point     4 :       0.4286    0.0000   -0.0000
  band No.  band energies     occupation 
      1      -4.9012      1.00000
      2      -3.3910      1.00000
      3      -2.7171      1.00000
      4      -2.4269      1.00000
      5       0.3695      1.00000
      6       0.8871      1.00000
      7       1.2050      1.00000
      8       2.2964      1.00000
      9       2.5639      1.00000
     10       3.2783      1.00000
     11       3.7505      1.00000
     12       3.9146      1.00000
     13       4.9329      1.00000
     14       5.3848      1.00000
     15       6.2275      1.00000
     16       6.8443      1.00000
     17      11.5485      0.00000
     18      12.1826      0.00000
     19      13.3859      0.00000
     20      13.6229      0.00000
     21      14.3562      0.00000
     22      14.8189      0.00000
     23      15.2513      0.00000
     24      15.5817      0.00000
     25      16.5710      0.00000
     26      16.9610      0.00000
     27      17.4547      0.00000
     28      17.8748      0.00000
     29      18.2043      0.00000
     30      18.8319      0.00000
     31      19.0055      0.00000
     32      19.6969      0.00000

 k-point     5 :       0.0000    0.2500    0.0000
  band No.  band energies     occupation 
      1      -7.0135      1.00000
      2      -4.4541      1.00000
      3      -3.9718      1.00000
      4      -3.6654      1.00000
      5       0.2168      1.00000
      6       0.5280      1.00000
      7       1.7009      1.00000
      8       4.6825      1.00000
      9       5.3349      1.00000
     10       5.5305      1.00000
     11       6.1454      1.00000
     12       6.3982      1.00000
     13       6.4701      1.00000
     14       7.0241      1.00000
     15       7.5316      1.00000
     16       7.8024      1.00000
     17      11.1723      0.00000
     18      11.8662      0.00000
     19      13.0603      0.00000
     20      13.3694      0.00000
     21      13.8968      0.00000
     22      14.6092      0.00000
     23      14.9705      0.00000
     24      15.2540      0.00000
     25      15.6395      0.00000
     26      16.3346      0.00000
     27      16.9755      0.00000
     28      17.2947      0.00000
     29      18.0425      0.00000
     30      18.2779      0.00000
     31      18.7273      0.00000
     32      19.3925      0.00000

 k-point     6 :       0.1429    0.2500    0.0000
  band No.  band energies     occupation 
      1      -6.8148      1.00000
      2      -3.9874      1.00000
      3      -3.7519      1.00000
      4      -3.4831      1.00000
      5       0.0871      1.00000
      6       0.8257      1.00000
      7       1.4462      1.00000
      8       4.3126      1.00000
      9       4.5169      1.00000
     10       4.7257      1.00000
     11       5.7389      1.00000
     12       5.8552      1.00000
     13       6.0749      1.00000
     14       6.5449      1.00000
     15       7.4102      1.00000
     16       7.6892      1.00000
     17      11.9430      0.00000
[...]
     32      20.2350      0.00000

 k-point    52 :      -0.4286    0.2500    0.5000
  band No.  band energies     occupation 
      1      -4.7901      1.00000
      2      -3.3311      1.00000
      3      -2.7239      1.00000
      4      -2.4138      1.00000
      5       0.0067      1.00000
      6       0.2515      1.00000
      7       0.6428      1.00000
      8       2.4114      1.00000
      9       2.7805      1.00000
     10       3.4367      1.00000
     11       4.3893      1.00000
     12       4.5585      1.00000
     13       5.3575      1.00000
     14       6.2710      1.00000
     15       6.3652      1.00000
     16       6.4946      1.00000
     17      11.1765      0.00000
     18      11.7621      0.00000
     19      12.1793      0.00000
     20      12.7231      0.00000
     21      13.8631      0.00000
     22      14.4502      0.00000
     23      14.8134      0.00000
     24      15.2842      0.00000
     25      15.8734      0.00000
     26      16.6289      0.00000
     27      17.6437      0.00000
     28      18.2817      0.00000
     29      19.3195      0.00000
     30      19.6297      0.00000
     31      19.8819      0.00000
     32      20.6753      0.00000

 k-point    53 :      -0.2857    0.2500    0.5000
  band No.  band energies     occupation 
      1      -5.8312      1.00000
      2      -3.9893      1.00000
      3      -3.5509      1.00000
      4      -2.5038      1.00000
      5       0.6068      1.00000
      6       1.3952      1.00000
      7       1.6438      1.00000
      8       2.6728      1.00000
      9       3.0216      1.00000
     10       3.8726      1.00000
     11       4.0980      1.00000
     12       4.5514      1.00000
     13       5.6079      1.00000
     14       6.4515      1.00000
     15       6.9513      1.00000
     16       7.1045      1.00000
     17      11.4466      0.00000
     18      12.1692      0.00000
     19      12.9151      0.00000
     20      14.0176      0.00000
     21      14.1603      0.00000
     22      14.6385      0.00000
     23      14.8747      0.00000
     24      15.7510      0.00000
     25      16.4745      0.00000
     26      16.6953      0.00000
     27      17.1379      0.00000
     28      18.2277      0.00000
     29      18.4907      0.00000
     30      18.8616      0.00000
     31      19.2284      0.00000
     32      19.6778      0.00000

 k-point    54 :      -0.1429    0.2500    0.5000
  band No.  band energies     occupation 
      1      -6.4183      1.00000
      2      -4.7724      1.00000
      3      -4.6147      1.00000
      4      -2.5799      1.00000
      5       0.6088      1.00000
      6       1.7971      1.00000
      7       2.3016      1.00000
      8       3.0267      1.00000
      9       3.9691      1.00000
     10       4.9084      1.00000
     11       5.2655      1.00000
     12       5.6866      1.00000
     13       6.2173      1.00000
     14       6.5247      1.00000
     15       6.7715      1.00000
     16       7.2763      1.00000
     17      12.1634      0.00000
     18      12.6968      0.00000
     19      13.3775      0.00000
     20      13.9551      0.00000
     21      14.6646      0.00000
     22      14.8104      0.00000
     23      15.4821      0.00000
     24      15.5632      0.00000
     25      15.8199      0.00000
     26      16.2749      0.00000
     27      16.5634      0.00000
     28      17.0349      0.00000
     29      17.6839      0.00000
     30      18.1851      0.00000
     31      19.1107      0.00000
     32      19.7683      0.00000

 k-point    55 :       0.0000    0.5000    0.5000
  band No.  band energies     occupation 
      1      -6.1072      1.00000
      2      -6.0398      1.00000
      3      -3.8332      1.00000
      4      -3.8171      1.00000
      5       1.3693      1.00000
      6       1.4313      1.00000
      7       3.4674      1.00000
      8       3.5183      1.00000
      9       4.1147      1.00000
     10       4.1697      1.00000
     11       5.8514      1.00000
     12       6.0017      1.00000
     13       6.8153      1.00000
     14       7.0087      1.00000
     15       7.2000      1.00000
     16       7.4629      1.00000
     17      11.8241      0.00000
     18      12.1491      0.00000
     19      13.2819      0.00000
     20      13.4681      0.00000
     21      14.4951      0.00000
     22      14.6826      0.00000
     23      15.2156      0.00000
     24      15.6552      0.00000
     25      16.4683      0.00000
     26      16.8830      0.00000
     27      16.9765      0.00000
     28      17.2023      0.00000
     29      18.2153      0.00000
     30      18.4281      0.00000
     31      18.8922      0.00000
     32      19.2019      0.00000

 k-point    56 :       0.1429    0.5000    0.5000
  band No.  band energies     occupation 
      1      -5.9580      1.00000
      2      -5.6409      1.00000
      3      -3.9742      1.00000
      4      -3.2533      1.00000
      5       1.0808      1.00000
      6       1.8672      1.00000
      7       3.2262      1.00000
      8       3.5488      1.00000
      9       3.8415      1.00000
     10       4.0436      1.00000
     11       5.0125      1.00000
     12       5.1392      1.00000
     13       5.9854      1.00000
     14       6.4322      1.00000
     15       6.9836      1.00000
     16       7.3904      1.00000
     17      12.8651      0.00000
     18      13.1736      0.00000
     19      13.4406      0.00000
     20      13.4772      0.00000
     21      14.4859      0.00000
     22      14.5706      0.00000
     23      15.2051      0.00000
     24      15.4332      0.00000
     25      16.0270      0.00000
     26      16.0988      0.00000
     27      16.8430      0.00000
     28      17.0778      0.00000
     29      17.7478      0.00000
     30      18.2197      0.00000
     31      18.5954      0.00000
     32      19.5804      0.00000

 k-point    57 :       0.2857    0.5000    0.5000
  band No.  band energies     occupation 
      1      -5.3161      1.00000
      2      -4.7141      1.00000
      3      -3.6880      1.00000
      4      -2.4555      1.00000
      5       0.6928      1.00000
      6       1.3253      1.00000
      7       1.9838      1.00000
      8       2.2739      1.00000
      9       3.2740      1.00000
     10       4.3458      1.00000
     11       4.5622      1.00000
     12       5.0056      1.00000
     13       5.3953      1.00000
     14       6.2266      1.00000
     15       6.5880      1.00000
     16       6.9148      1.00000
     17      11.6280      0.00000
     18      11.9246      0.00000
     19      12.5523      0.00000
     20      12.7992      0.00000
     21      13.9913      0.00000
     22      14.7595      0.00000
     23      15.0365      0.00000
     24      15.5356      0.00000
     25      16.3323      0.00000
     26      16.7739      0.00000
     27      17.4105      0.00000
     28      17.7817      0.00000
     29      18.8135      0.00000
     30      18.9898      0.00000
     31      19.3869      0.00000
     32      19.6587      0.00000

 k-point    58 :       0.4286    0.5000    0.5000
  band No.  band energies     occupation 
      1      -4.3662      1.00000
      2      -3.5569      1.00000
      3      -3.1982      1.00000
      4      -2.2244      1.00000
      5      -0.1089      1.00000
      6       0.1226      1.00000
      7       0.2307      1.00000
      8       2.1642      1.00000
      9       2.5541      1.00000
     10       4.7099      1.00000
     11       5.1588      1.00000
     12       5.3210      1.00000
     13       5.4842      1.00000
     14       5.8456      1.00000
     15       6.4213      1.00000
     16       6.8469      1.00000
     17      10.8819      0.00000
     18      11.0074      0.00000
     19      11.1097      0.00000
     20      11.6258      0.00000
     21      13.2282      0.00000
     22      13.4307      0.00000
     23      14.3088      0.00000
     24      15.4318      0.00000
     25      17.3070      0.00000
     26      17.6418      0.00000
     27      17.9497      0.00000
     28      18.5407      0.00000
     29      19.2363      0.00000
     30      19.5568      0.00000
     31      20.0401      0.00000
     32      20.7370      0.00000


--------------------------------------------------------------------------------------------------------


 soft charge-density along one line, spin component           1
         0         1         2         3         4         5         6         7         8         9
 total charge-density along one line
 
 soft charge-density along one line, spin component           2
         0         1         2         3         4         5         6         7         8         9
 total charge-density along one line
 
 pseudopotential strength for first ion, spin component:           1
  9.417  12.505  -0.001  -0.002   0.005   0.003   0.004  -0.011
 12.505  16.604  -0.001  -0.002   0.007   0.004   0.005  -0.015
 -0.001  -0.001  -3.646   0.000  -0.001   7.143  -0.000   0.001
 -0.002  -0.002   0.000  -3.646  -0.001  -0.000   7.144   0.001
  0.005   0.007  -0.001  -0.001  -3.647   0.001   0.001   7.145
  0.003   0.004   7.143  -0.000   0.001 -16.088   0.000  -0.002
  0.004   0.005  -0.000   7.144   0.001   0.000 -16.089  -0.002
 -0.011  -0.015   0.001   0.001   7.145  -0.002  -0.002 -16.092
 pseudopotential strength for first ion, spin component:           2
  9.417  12.505  -0.001  -0.002   0.005   0.003   0.004  -0.011
 12.505  16.604  -0.001  -0.002   0.007   0.004   0.005  -0.015
 -0.001  -0.001  -3.646   0.000  -0.001   7.143  -0.000   0.001
 -0.002  -0.002   0.000  -3.646  -0.001  -0.000   7.144   0.001
  0.005   0.007  -0.001  -0.001  -3.647   0.001   0.001   7.145
  0.003   0.004   7.143  -0.000   0.001 -16.088   0.000  -0.002
  0.004   0.005  -0.000   7.144   0.001   0.000 -16.089  -0.002
 -0.011  -0.015   0.001   0.001   7.145  -0.002  -0.002 -16.092
 total augmentation occupancy for first ion, spin component:           1
  6.180  -2.473  -0.056  -0.033   0.016  -0.009  -0.006   0.006
 -2.473   1.050   0.040   0.031  -0.048   0.005   0.004  -0.005
 -0.056   0.040   1.462   0.013   0.037   0.106  -0.001   0.003
 -0.033   0.031   0.013   1.457   0.033  -0.001   0.106   0.003
  0.016  -0.048   0.037   0.033   1.473   0.003   0.003   0.109
 -0.009   0.005   0.106  -0.001   0.003   0.008  -0.000   0.000
 -0.006   0.004  -0.001   0.106   0.003  -0.000   0.008   0.000
  0.006  -0.005   0.003   0.003   0.109   0.000   0.000   0.009
 total augmentation occupancy for first ion, spin component:           2
 -0.000   0.000   0.000  -0.000   0.000   0.000   0.000   0.000
  0.000  -0.000  -0.000   0.000  -0.000  -0.000  -0.000  -0.000
  0.000  -0.000  -0.000  -0.000   0.000  -0.000   0.000   0.000
 -0.000   0.000  -0.000  -0.000   0.000   0.000  -0.000   0.000
  0.000  -0.000   0.000   0.000  -0.000   0.000   0.000  -0.000
  0.000  -0.000  -0.000   0.000   0.000  -0.000   0.000   0.000
  0.000  -0.000   0.000  -0.000   0.000   0.000  -0.000   0.000
  0.000  -0.000   0.000   0.000  -0.000   0.000   0.000  -0.000


------------------------ aborting loop because EDIFF is reached ----------------------------------------


 


 total charge     
 
# of ion       s       p       d       tot
------------------------------------------
    1        0.839   1.672   0.000   2.511
    2        0.837   1.659   0.000   2.497
    3        0.836   1.690   0.000   2.526
    4        0.835   1.681   0.000   2.517
    5        0.708   0.934   0.000   1.642
    6        0.708   0.945   0.000   1.653
    7        0.708   0.954   0.000   1.662
    8        0.708   0.943   0.000   1.650
--------------------------------------------------
tot          6.179  10.479   0.000  16.657
 


 magnetization (x)
 
# of ion       s       p       d       tot
------------------------------------------
    1        0.000   0.000   0.000   0.000
    2        0.000   0.000   0.000   0.000
    3        0.000   0.000   0.000   0.000
    4        0.000   0.000   0.000   0.000
    5        0.000  -0.000   0.000  -0.000
    6        0.000  -0.000   0.000  -0.000
    7        0.000  -0.000   0.000  -0.000
    8        0.000  -0.000   0.000  -0.000
--------------------------------------------------
tot          0.000   0.000   0.000   0.000
 
    CHARGE:  cpu time    0.1000: real time    0.1087
    FORLOC:  cpu time    0.0010: real time    0.0007
    FORNL :  cpu time    0.3509: real time    0.3516
    STRESS:  cpu time    1.2918: real time    1.2927
    FORCOR:  cpu time    0.0160: real time    0.0145
    FORHAR:  cpu time    0.0010: real time    0.0018
    MIXING:  cpu time    0.0010: real time    0.0008
    OFIELD:  cpu time    0.0000: real time    0.0001

  FORCE on cell =-STRESS in cart. coord.  units (eV):
  Direction    XX          YY          ZZ          XY          YZ          ZX
  --------------------------------------------------------------------------------------
  Alpha Z    43.92920    43.92920    43.92920
  Ewald    -373.33681  -383.59035  -376.47582     1.24153    -2.46355     0.14635
  Hartree    40.64175    41.04104    45.82727     2.53568     0.12046     0.27462
  E(xc)    -113.23946  -113.17784  -113.00357    -0.00223    -0.02891    -0.01182
  Local     -84.10601   -74.91343   -85.68863    -4.09432     2.58774    -0.54328
  n-local   136.54802   134.94567   132.98312    -0.60865    -0.45559    -0.00283
  augment   -23.04367   -22.90903   -22.83933     0.02249     0.00044    -0.01495
  Kinetic   371.60885   372.62349   375.48923     2.64806     3.30269     0.94015
  Fock        0.00000     0.00000     0.00000     0.00000     0.00000     0.00000
  -------------------------------------------------------------------------------------
  Total      -0.99814    -2.05125     0.22146     1.74257     3.06328     0.78823
  in kB     -18.95652   -38.95715     4.20587    33.09464    58.17760    14.96996
  external pressure =      -17.90 kB  Pullay stress =        0.00 kB


 VOLUME and BASIS-vectors are now :
 -----------------------------------------------------------------------------
  energy-cutoff  :      560.00
  volume of cell :       84.36
      direct lattice vectors                 reciprocal lattice vectors
     3.077698352  0.000000000  0.000000000     0.324918132  0.001146230 -0.096471528
    -0.019077009  5.407695999  0.000000000     0.000000000  0.184921638  0.105113331
     1.515138368 -2.881203362  5.068784698     0.000000000  0.000000000  0.197285949

  length of vectors
     3.077698352  5.407729648  6.024081291     0.338939319  0.212708308  0.197285949


 FORCES acting on ions
    electron-ion (+dipol)            ewald-force                    non-local-force                 convergence-correction
 -----------------------------------------------------------------------------------------------
   0.481E+00 -.332E+01 -.271E+01   -.211E+01 0.413E+01 0.355E+01   0.319E+01 -.712E+00 -.106E+01   0.103E-04 0.146E-04 0.465E-05
   -.674E+01 0.472E+00 -.411E+01   0.909E+01 -.755E+00 0.467E+01   -.368E+01 0.432E+00 -.493E+00   0.228E-04 0.650E-06 0.189E-04
   0.343E+01 0.132E+01 0.894E-01   -.417E+01 -.190E+01 0.563E-01   0.921E+00 0.104E+01 -.237E+00   -.174E-04 -.755E-05 -.491E-05
   0.164E+01 -.624E+01 -.149E+01   -.158E+01 0.728E+01 0.130E+01   -.311E+00 -.112E+01 0.495E+00   -.966E-05 0.225E-04 0.785E-05
   0.130E+02 0.312E+01 0.622E+01   -.981E+01 -.234E+01 -.491E+01   -.201E+01 -.149E+01 -.136E+01   -.791E-07 -.130E-05 -.271E-06
   -.351E+01 0.111E+01 0.156E+01   0.259E+01 -.580E+00 -.164E+01   0.120E+01 -.246E+00 -.207E+00   0.601E-05 -.248E-06 -.390E-05
   -.315E+01 0.446E+01 -.276E+00   0.259E+01 -.348E+01 -.155E+00   0.330E+00 -.137E+01 0.394E+00   0.964E-06 -.400E-05 0.140E-05
   -.453E+01 0.301E+01 0.365E+01   0.341E+01 -.236E+01 -.288E+01   -.264E+00 -.463E+00 -.476E+00   -.717E-05 0.464E-05 0.225E-05
 -----------------------------------------------------------------------------------------------
   0.611E+00 0.394E+01 0.294E+01   0.888E-15 -.355E-14 -.888E-14   -.611E+00 -.394E+01 -.294E+01   0.572E-05 0.292E-04 0.259E-04
 
 
 POSITION                                       TOTAL-FORCE (eV/Angst)
 -----------------------------------------------------------------------------------
      3.75705     -0.93888      2.76452         1.560708      0.097336     -0.215691
      2.66147      3.55776      0.18445        -1.329186      0.149472      0.062076
      0.94518      0.81847      0.19807         0.177561      0.471036     -0.091231
      2.43613      1.77142      2.68739        -0.254649     -0.076517      0.306797
      2.23123      3.60557      2.09148         1.181489     -0.716694     -0.039398
      3.97530     -1.11806      4.66735         0.281609      0.281290     -0.283933
      0.89167      0.86323      2.09494        -0.230595     -0.394418     -0.037433
      2.65398      1.59081      4.58728        -1.386938      0.188495      0.298812
 -----------------------------------------------------------------------------------
    total drift:                               -0.000076      0.000216     -0.000163


--------------------------------------------------------------------------------------------------------



  FREE ENERGIE OF THE ION-ELECTRON SYSTEM (eV)
  ---------------------------------------------------
  free  energy   TOTEN  =       -59.45915578 eV

  energy  without entropy=      -59.45915578  energy(sigma->0) =      -59.45915578
 


--------------------------------------------------------------------------------------------------------


    POTLOK:  cpu time    0.2830: real time    0.2826


--------------------------------------------------------------------------------------------------------


 writing wavefunctions
     LOOP+:  cpu time   71.0072: real time   71.2196
    4ORBIT:  cpu time    0.0000: real time    0.0000
 


 total charge     
 
# of ion       s       p       d       tot
------------------------------------------
    1        0.839   1.672   0.000   2.511
    2        0.837   1.659   0.000   2.497
    3        0.836   1.690   0.000   2.526
    4        0.835   1.681   0.000   2.517
    5        0.708   0.934   0.000   1.642
    6        0.708   0.945   0.000   1.653
    7        0.708   0.954   0.000   1.662
    8        0.708   0.943   0.000   1.650
--------------------------------------------------
tot          6.179  10.479   0.000  16.657
 


 magnetization (x)
 
# of ion       s       p       d       tot
------------------------------------------
    1        0.000   0.000   0.000   0.000
    2        0.000   0.000   0.000   0.000
    3        0.000   0.000   0.000   0.000
    4        0.000   0.000   0.000   0.000
    5        0.000  -0.000   0.000  -0.000
    6        0.000  -0.000   0.000  -0.000
    7        0.000  -0.000   0.000  -0.000
    8        0.000  -0.000   0.000  -0.000
--------------------------------------------------
tot          0.000   0.000   0.000   0.000
 

 total amount of memory used by VASP MPI-rank0    65826. kBytes
=======================================================================

   base      :      30000. kBytes
   nonl-proj :      19333. kBytes
   fftplans  :       1770. kBytes
   grid      :       4934. kBytes
   one-center:         49. kBytes
   wavefun   :       9740. kBytes
 
  
  
 General timing and accounting informations for this job:
 ========================================================
  
                  Total CPU time used (sec):       73.769
                            User time (sec):       71.873
                          System time (sec):        1.896
                         Elapsed time (sec):       74.055
  
                   Maximum memory used (kb):       92240.
                   Average memory used (kb):           0.
  
                          Minor page faults:        33840
                          Major page faults:            0
                 Voluntary context switches:         1415
