
.Version 8.4.2 of ABINIT 
.(MPI version, prepared for a x86_64_linux_intel17.0 computer) 

.Copyright (C) 1998-2017 ABINIT group . 
 ABINIT comes with ABSOLUTELY NO WARRANTY.
 It is free software, and you are welcome to redistribute it
 under certain conditions (GNU General Public License,
 see ~abinit/COPYING or http://www.gnu.org/copyleft/gpl.txt).

 ABINIT is a project of the Universite Catholique de Louvain,
 Corning Inc. and other collaborators, see ~abinit/doc/developers/contributors.txt .
 Please read ~abinit/doc/users/acknowledgments.html for suggested
 acknowledgments of the ABINIT effort.
 For more information, see http://www.abinit.org .

.Starting date : Sat 10 Nov 2018.
- ( at 02h12 )
  
- input  file    -> LaMnO30.in
- output file    -> LaMnO30.out
- root for input  files -> LaMnO30xi
- root for output files -> LaMnO30xo
 
 
 Symmetries : space group Pm c 2_1 (# 26); Bravais oP (primitive ortho.)
================================================================================
 Values of the parameters that define the memory need of the present run
     intxc =       0    ionmov =       0      iscf =       7    lmnmax =       8
     lnmax =       8     mgfft =      54  mpssoang =       4    mqgrid =    3001
     natom =      20  nloc_mem =       1    nspden =       1   nspinor =       1
    nsppol =       1      nsym =       4    n1xccc =    2501    ntypat =       3
    occopt =       1   xclevel =       2
-    mband =          91        mffmem =           1         mkmem =          16
       mpw =        5092          nfft =       86400          nkpt =          64
================================================================================
P This job should need less than                     146.806 Mbytes of memory.
  Rough estimation (10% accuracy) of disk space for files :
_ WF disk file :    452.514 Mbytes ; DEN or POT disk file :      0.661 Mbytes.
================================================================================
 
--------------------------------------------------------------------------------
------------- Echo of variables that govern the present computation ------------
--------------------------------------------------------------------------------
-
- outvars: echo of selected default values                                      
-   iomode0 =  0 , fftalg0 =112 , wfoptalg0 =  0
-
- outvars: echo of global parameters not present in the input file              
-  max_nthreads =    6
-
 -outvars: echo values of preprocessed input variables --------
            acell      5.4447483764E+00  5.4607816818E+00  7.6752728170E+00 Bohr
              amu      1.38905500E+02  5.49380500E+01  1.59994000E+01
        autoparal           4
             ecut      6.00000000E+01 Hartree
-          fftalg         112
              ixc          11
              kpt      6.25000000E-02  6.25000000E-02  6.25000000E-02
                       1.87500000E-01  6.25000000E-02  6.25000000E-02
                       3.12500000E-01  6.25000000E-02  6.25000000E-02
                       4.37500000E-01  6.25000000E-02  6.25000000E-02
                       6.25000000E-02  1.87500000E-01  6.25000000E-02
                       1.87500000E-01  1.87500000E-01  6.25000000E-02
                       3.12500000E-01  1.87500000E-01  6.25000000E-02
                       4.37500000E-01  1.87500000E-01  6.25000000E-02
                       6.25000000E-02  3.12500000E-01  6.25000000E-02
                       1.87500000E-01  3.12500000E-01  6.25000000E-02
                       3.12500000E-01  3.12500000E-01  6.25000000E-02
                       4.37500000E-01  3.12500000E-01  6.25000000E-02
                       6.25000000E-02  4.37500000E-01  6.25000000E-02
                       1.87500000E-01  4.37500000E-01  6.25000000E-02
                       3.12500000E-01  4.37500000E-01  6.25000000E-02
                       4.37500000E-01  4.37500000E-01  6.25000000E-02
                       6.25000000E-02  6.25000000E-02  1.87500000E-01
                       1.87500000E-01  6.25000000E-02  1.87500000E-01
                       3.12500000E-01  6.25000000E-02  1.87500000E-01
                       4.37500000E-01  6.25000000E-02  1.87500000E-01
                       6.25000000E-02  1.87500000E-01  1.87500000E-01
                       1.87500000E-01  1.87500000E-01  1.87500000E-01
                       3.12500000E-01  1.87500000E-01  1.87500000E-01
                       4.37500000E-01  1.87500000E-01  1.87500000E-01
                       6.25000000E-02  3.12500000E-01  1.87500000E-01
                       1.87500000E-01  3.12500000E-01  1.87500000E-01
                       3.12500000E-01  3.12500000E-01  1.87500000E-01
                       4.37500000E-01  3.12500000E-01  1.87500000E-01
                       6.25000000E-02  4.37500000E-01  1.87500000E-01
                       1.87500000E-01  4.37500000E-01  1.87500000E-01
                       3.12500000E-01  4.37500000E-01  1.87500000E-01
                       4.37500000E-01  4.37500000E-01  1.87500000E-01
                       6.25000000E-02  6.25000000E-02  3.12500000E-01
                       1.87500000E-01  6.25000000E-02  3.12500000E-01
                       3.12500000E-01  6.25000000E-02  3.12500000E-01
                       4.37500000E-01  6.25000000E-02  3.12500000E-01
                       6.25000000E-02  1.87500000E-01  3.12500000E-01
                       1.87500000E-01  1.87500000E-01  3.12500000E-01
                       3.12500000E-01  1.87500000E-01  3.12500000E-01
                       4.37500000E-01  1.87500000E-01  3.12500000E-01
                       6.25000000E-02  3.12500000E-01  3.12500000E-01
                       1.87500000E-01  3.12500000E-01  3.12500000E-01
                       3.12500000E-01  3.12500000E-01  3.12500000E-01
                       4.37500000E-01  3.12500000E-01  3.12500000E-01
                       6.25000000E-02  4.37500000E-01  3.12500000E-01
                       1.87500000E-01  4.37500000E-01  3.12500000E-01
                       3.12500000E-01  4.37500000E-01  3.12500000E-01
                       4.37500000E-01  4.37500000E-01  3.12500000E-01
                       6.25000000E-02  6.25000000E-02  4.37500000E-01
                       1.87500000E-01  6.25000000E-02  4.37500000E-01
                       outvar_i_n : Printing only first  50 k-points.
         kptrlatt        8    0    0      0    8    0      0    0    8
          kptrlen      4.35579870E+01
P           mkmem          16
            natom          20
            nband          91
            ngfft          40      40      54
             nkpt          64
-           npkpt           4
             nsym           4
           ntypat           3
              occ      2.000000  2.000000  2.000000  2.000000  2.000000  2.000000
                       2.000000  2.000000  2.000000  2.000000  2.000000  2.000000
                       2.000000  2.000000  2.000000  2.000000  2.000000  2.000000
                       2.000000  2.000000  2.000000  2.000000  2.000000  2.000000
                       2.000000  2.000000  2.000000  2.000000  2.000000  2.000000
                       2.000000  2.000000  2.000000  2.000000  2.000000  2.000000
                       2.000000  2.000000  2.000000  2.000000  2.000000  2.000000
                       2.000000  2.000000  2.000000  2.000000  2.000000  2.000000
                       2.000000  2.000000  2.000000  2.000000  2.000000  2.000000
                       2.000000  2.000000  2.000000  2.000000  2.000000  2.000000
                       2.000000  2.000000  2.000000  2.000000  2.000000  2.000000
                       2.000000  2.000000  2.000000  2.000000  2.000000  2.000000
                       2.000000  2.000000  2.000000  2.000000  2.000000  2.000000
                       2.000000  2.000000  2.000000  2.000000  2.000000  2.000000
                       2.000000  2.000000  2.000000  2.000000  0.000000  0.000000
                       0.000000
           shiftk      5.00000000E-01  5.00000000E-01  5.00000000E-01
          spgroup          26
           symrel      1  0  0   0  1  0   0  0  1       1  0  0   0 -1  0   0  0  1
                       1  0  0   0  1  0   0  0 -1       1  0  0   0 -1  0   0  0 -1
            tnons      0.0000000  0.0000000  0.0000000     0.5000000  0.5000000  0.0000000
                       0.0000000  0.0000000  0.5000000     0.5000000  0.5000000  0.5000000
           toldfe      1.00000000E-06 Hartree
            typat      1  1  1  1  2  2  2  2  3  3  3  3  3  3  3  3  3  3  3  3
              wtk        0.01563    0.01563    0.01563    0.01563    0.01563    0.01563
                         0.01563    0.01563    0.01563    0.01563    0.01563    0.01563
                         0.01563    0.01563    0.01563    0.01563    0.01563    0.01563
                         0.01563    0.01563    0.01563    0.01563    0.01563    0.01563
                         0.01563    0.01563    0.01563    0.01563    0.01563    0.01563
                         0.01563    0.01563    0.01563    0.01563    0.01563    0.01563
                         0.01563    0.01563    0.01563    0.01563    0.01563    0.01563
                         0.01563    0.01563    0.01563    0.01563    0.01563    0.01563
                         0.01563    0.01563
                       outvars : Printing only first  50 k-points.
           xangst      7.5410609367E-02  1.9240293742E-02  1.0153948611E+00
                       2.8058261380E+00  2.8704809047E+00  3.0461845833E+00
                       1.3652077643E+00  1.4641009060E+00  3.0461845833E+00
                       1.5160289830E+00  1.4256203011E+00  1.0153948611E+00
                       1.4406183737E+00  0.0000000000E+00  0.0000000000E+00
                       0.0000000000E+00  1.4448606036E+00  0.0000000000E+00
                       1.4406183737E+00  0.0000000000E+00  2.0307897222E+00
                       0.0000000000E+00  1.4448606036E+00  2.0307897222E+00
                       1.4128096577E+00  2.6991546407E+00  1.0153948611E+00
                       1.4684270896E+00  1.9056656640E-01  3.0461845833E+00
                       2.7808715948E-02  1.2542940372E+00  3.0461845833E+00
                       2.8534280314E+00  1.6354271700E+00  1.0153948611E+00
                       2.2312902652E+00  6.5395078851E-01  1.4475116912E-01
                       6.4994648216E-01  2.2357703319E+00  3.9168283809E+00
                       2.0905648558E+00  2.0988114788E+00  3.9168283809E+00
                       7.9067189150E-01  7.9090981505E-01  1.4475116912E-01
                       6.4994648216E-01  2.2357703319E+00  2.1755407858E+00
                       2.2312902652E+00  6.5395078851E-01  1.8860385369E+00
                       7.9067189150E-01  7.9090981505E-01  1.8860385369E+00
                       2.0905648558E+00  2.0988114788E+00  2.1755407858E+00
            xcart      1.4250539922E-01  3.6358885889E-02  1.9188182042E+00
                       5.3022429772E+00  5.4244227796E+00  5.7564546127E+00
                       2.5798687890E+00  2.7667497432E+00  5.7564546127E+00
                       2.8648795874E+00  2.6940319386E+00  1.9188182042E+00
                       2.7223741882E+00  0.0000000000E+00  0.0000000000E+00
                       0.0000000000E+00  2.7303908409E+00  0.0000000000E+00
                       2.7223741882E+00  0.0000000000E+00  3.8376364085E+00
                       0.0000000000E+00  2.7303908409E+00  3.8376364085E+00
                       2.6698233310E+00  5.1006630613E+00  1.9188182042E+00
                       2.7749250455E+00  3.6011862058E-01  5.7564546127E+00
                       5.2550857249E-02  2.3702722203E+00  5.7564546127E+00
                       5.3921975192E+00  3.0905094615E+00  1.9188182042E+00
                       4.2165275241E+00  1.2357878947E+00  2.7354006706E-01
                       1.2282208523E+00  4.2249936233E+00  7.4017329495E+00
                       3.9505950405E+00  3.9661788994E+00  7.4017329495E+00
                       1.4941533359E+00  1.4946029463E+00  2.7354006706E-01
                       1.2282208523E+00  4.2249936233E+00  4.1111762760E+00
                       4.2165275241E+00  1.2357878947E+00  3.5640963107E+00
                       1.4941533359E+00  1.4946029463E+00  3.5640963107E+00
                       3.9505950405E+00  3.9661788994E+00  4.1111762760E+00
             xred      2.6172999993E-02  6.6581833897E-03  2.5000000000E-01
                       9.7382700001E-01  9.9334181361E-01  7.5000000000E-01
                       4.7382700001E-01  5.0665818639E-01  7.5000000000E-01
                       5.2617299999E-01  4.9334181361E-01  2.5000000000E-01
                       5.0000000000E-01  0.0000000000E+00  0.0000000000E+00
                       0.0000000000E+00  5.0000000000E-01  0.0000000000E+00
                       5.0000000000E-01  0.0000000000E+00  5.0000000000E-01
                       0.0000000000E+00  5.0000000000E-01  5.0000000000E-01
                       4.9034834053E-01  9.3405364991E-01  2.5000000000E-01
                       5.0965165947E-01  6.5946350094E-02  7.5000000000E-01
                       9.6516594736E-03  4.3405364991E-01  7.5000000000E-01
                       9.9034834053E-01  5.6594635009E-01  2.5000000000E-01
                       7.7442100766E-01  2.2630238062E-01  3.5639132781E-02
                       2.2557899234E-01  7.7369758938E-01  9.6436089322E-01
                       7.2557899234E-01  7.2630241062E-01  9.6436089322E-01
                       2.7442100766E-01  2.7369761938E-01  3.5639132781E-02
                       2.2557899234E-01  7.7369758938E-01  5.3563910678E-01
                       7.7442100766E-01  2.2630238062E-01  4.6436086322E-01
                       2.7442100766E-01  2.7369761938E-01  4.6436086322E-01
                       7.2557899234E-01  7.2630241062E-01  5.3563910678E-01
            znucl       57.00000   25.00000    8.00000
 
================================================================================
 
 chkinp: Checking input parameters for consistency.
 
================================================================================
== DATASET  1 ==================================================================
-   nproc =    4
 
 Exchange-correlation functional for the present dataset will be:
  GGA: Perdew-Burke-Ernzerhof functional - ixc=11
 Citation for XC functional:
  J.P.Perdew, K.Burke, M.Ernzerhof, PRL 77, 3865 (1996)
 
 Real(R)+Recip(G) space primitive vectors, cartesian coordinates (Bohr,Bohr^-1):
 R(1)=  5.4447484  0.0000000  0.0000000  G(1)=  0.1836632  0.0000000  0.0000000
 R(2)=  0.0000000  5.4607817  0.0000000  G(2)=  0.0000000  0.1831240  0.0000000
 R(3)=  0.0000000  0.0000000  7.6752728  G(3)=  0.0000000  0.0000000  0.1302885
 Unit cell volume ucvol=  2.2820568E+02 bohr^3
 Angles (23,13,12)=  9.00000000E+01  9.00000000E+01  9.00000000E+01 degrees
 
 getcut: wavevector=  0.0000  0.0000  0.0000  ngfft=  40  40  54
         ecut(hartree)=     60.000   => boxcut(ratio)=   2.01771
 
--- Pseudopotential description ------------------------------------------------
- pspini: atom type   1  psp file is /scratch/ukh0001/projects/moleculardynamics/pseudos/La.psp8
- pspatm: opening atomic psp file    /scratch/ukh0001/projects/moleculardynamics/pseudos/La.psp8
- La    ONCVPSP-3.2.3.1  r_core=   2.11664   1.60878   1.85636   1.66739
- 57.00000  11.00000    170510                znucl, zion, pspdat
    8   11    3    4       600   0.00000      pspcod,pspxc,lmax,lloc,mmax,r2well
    5.99000000000000    5.00000000000000    0.00000000000000   rchrg,fchrg,qchrg
     nproj     2     2     2     2
extension_switch     1
 pspatm: epsatm=   29.83565401
         --- l  ekb(1:nproj) -->
             0    6.631488    0.621657
             1    6.300998    1.146612
             2    3.569192    0.839626
             3  -13.838546   -4.898032
 pspatm: atomic psp has been read  and splines computed
 
- pspini: atom type   2  psp file is /scratch/ukh0001/projects/moleculardynamics/pseudos/Mn.psp8
- pspatm: opening atomic psp file    /scratch/ukh0001/projects/moleculardynamics/pseudos/Mn.psp8
- Mn    ONCVPSP-3.2.3.1  r_core=   1.41250   1.20960   1.61055
- 25.00000  15.00000    170429                znucl, zion, pspdat
    8   11    2    4       600   0.00000      pspcod,pspxc,lmax,lloc,mmax,r2well
    5.99000000000000    4.00000000000000    0.00000000000000   rchrg,fchrg,qchrg
     nproj     2     2     2
extension_switch     1
 pspatm: epsatm=   16.15518562
         --- l  ekb(1:nproj) -->
             0    9.235687    1.560555
             1    1.578057   -0.712176
             2   -6.612071   -2.165316
 pspatm: atomic psp has been read  and splines computed
 
- pspini: atom type   3  psp file is /scratch/ukh0001/projects/moleculardynamics/pseudos/O.psp8
- pspatm: opening atomic psp file    /scratch/ukh0001/projects/moleculardynamics/pseudos/O.psp8
- O     ONCVPSP-3.2.3.1  r_core=   1.35509   1.45563   1.26150
-  8.00000   6.00000    170504                znucl, zion, pspdat
    8   11    2    4       600   0.00000      pspcod,pspxc,lmax,lloc,mmax,r2well
    5.99000000000000    4.00000000000000    0.00000000000000   rchrg,fchrg,qchrg
     nproj     2     2     1
extension_switch     1
 pspatm: epsatm=    6.19546011
         --- l  ekb(1:nproj) -->
             0    6.056735    0.824024
             1   -4.717130   -1.149271
             2   -1.331955
 pspatm: atomic psp has been read  and splines computed
 
   4.54623628E+04                                ecore*ucvol(ha*bohr**3)
--------------------------------------------------------------------------------
 
_setup2: Arith. and geom. avg. npw (full set) are    5066.656    5066.643
 
================================================================================
 
     iter   Etot(hartree)      deltaE(h)  residm     vres2
 ETOT  1  -702.22240592238    -7.022E+02 4.477E-01 2.335E+03
 ETOT  2  -704.12857538693    -1.906E+00 5.597E-02 4.363E+03
 ETOT  3  -705.15178512680    -1.023E+00 6.029E-02 2.600E+02
 ETOT  4  -705.24581013515    -9.403E-02 2.024E-02 6.649E+00
 ETOT  5  -705.25799991220    -1.219E-02 2.176E-02 4.929E+00
 ETOT  6  -705.26395981242    -5.960E-03 7.143E-03 8.785E-01
 ETOT  7  -705.26640945962    -2.450E-03 1.263E-02 2.893E-02
 ETOT  8  -705.26760069100    -1.191E-03 3.433E-03 5.756E-02
 ETOT  9  -705.26827703994    -6.763E-04 3.834E-03 1.483E-02
 ETOT 10  -705.26865349836    -3.765E-04 2.011E-03 1.509E-02
 ETOT 11  -705.26887578877    -2.223E-04 3.826E-03 1.955E-02
 ETOT 12  -705.26900660037    -1.308E-04 2.028E-03 2.375E-02
 ETOT 13  -705.26907858864    -7.199E-05 4.502E-03 4.902E-02
 ETOT 14  -705.26912370320    -4.511E-05 1.746E-03 5.286E-02
 ETOT 15  -705.26915902164    -3.532E-05 4.337E-03 2.588E-02
 ETOT 16  -705.26917369736    -1.468E-05 1.392E-03 3.479E-02
 ETOT 17  -705.26918310458    -9.407E-06 3.323E-03 3.554E-02
 ETOT 18  -705.26919179177    -8.687E-06 9.140E-04 2.568E-02
 ETOT 19  -705.26920086648    -9.075E-06 2.134E-03 3.161E-03
 ETOT 20  -705.26920366640    -2.800E-06 7.353E-04 1.412E-04
 ETOT 21  -705.26920523692    -1.571E-06 1.234E-03 4.273E-05
 ETOT 22  -705.26920620833    -9.714E-07 7.659E-04 1.913E-05
 ETOT 23  -705.26920682422    -6.159E-07 1.020E-03 6.429E-06
 
 At SCF step   23, etot is converged : 
  for the second time, diff in etot=  6.159E-07 < toldfe=  1.000E-06
 
 Cartesian components of stress tensor (hartree/bohr^3)
  sigma(1 1)= -4.93241350E-01  sigma(3 2)=  0.00000000E+00
  sigma(2 2)= -5.05406288E-01  sigma(3 1)=  0.00000000E+00
  sigma(3 3)= -4.94195147E-01  sigma(2 1)=  0.00000000E+00
 
 Integrated electronic density in atomic spheres:
 ------------------------------------------------
 Atom  Sphere_radius  Integrated_density
    1        2.00000         17.51082626
    2        2.00000         17.51078188
    3        2.00000         17.51078189
    4        2.00000         17.51082625
    5        2.00000         32.11208390
    6        2.00000         32.11208390
    7        2.00000         32.11208390
    8        2.00000         32.11208390
    9        2.00000         26.97375953
   10        2.00000         26.97371987
   11        2.00000         26.97371993
   12        2.00000         26.97375948
   13        2.00000         26.93426266
   14        2.00000         26.93425142
   15        2.00000         26.93425144
   16        2.00000         26.93426264
   17        2.00000         26.93425142
   18        2.00000         26.93426266
   19        2.00000         26.93426264
   20        2.00000         26.93425144
================================================================================
 
 ----iterations are completed or convergence reached----
 
 Mean square residual over all n,k,spin=   1.8463E-06; max=  1.0200E-03
 reduced coordinates (array xred) for   20 atoms
       0.026172999993      0.006658183390      0.250000000000
       0.973827000007      0.993341812110      0.750000000000
       0.473827000007      0.506658184890      0.750000000000
       0.526172999993      0.493341813610      0.250000000000
       0.500000000000     -0.000000001500      0.000000000000
       0.000000000000      0.499999998500      0.000000000000
       0.500000000000     -0.000000001500      0.500000000000
       0.000000000000      0.499999998500      0.500000000000
       0.490348340526      0.934053648406      0.250000000000
       0.509651659474      0.065946348594      0.750000000000
       0.009651659474      0.434053648406      0.750000000000
       0.990348340526      0.565946348594      0.250000000000
       0.774421007658      0.226302379124      0.035639134781
       0.225578992342      0.773697587876      0.964360893219
       0.725578992342      0.726302409124      0.964360893219
       0.274421007658      0.273697617876      0.035639134781
       0.225578992342      0.773697587876      0.535639106781
       0.774421007658      0.226302379124      0.464360865219
       0.274421007658      0.273697617876      0.464360865219
       0.725578992342      0.726302409124      0.535639106781
 rms dE/dt=  1.0298E+00; max dE/dt=  2.1134E+00; dE/dt below (all hartree)
    1       2.113410797669      1.442442780760      0.000000000000
    2      -2.113329778201     -1.442246973669      0.000000000000
    3      -2.113329778201      1.442246973669      0.000000000000
    4       2.113410797669     -1.442442780760      0.000000000000
    5      -0.000197996348     -0.000094252615     -0.000428328312
    6      -0.000197996348      0.000094252615     -0.000428328312
    7      -0.000197996348     -0.000094252615      0.000428328312
    8      -0.000197996348      0.000094252615      0.000428328312
    9      -1.003249936181      1.740030766556      0.000000000000
   10       1.003430894320     -1.740066805722      0.000000000000
   11       1.003430894320      1.740066805722      0.000000000000
   12      -1.003249936181     -1.740030766556      0.000000000000
   13      -0.518998371378      1.107272088163     -1.080818996102
   14       0.519079400947     -1.107368775745      1.080353947659
   15       0.519079400947      1.107368775745      1.080353947659
   16      -0.518998371378     -1.107272088163     -1.080818996102
   17       0.519079400947     -1.107368775745     -1.080353947659
   18      -0.518998371378      1.107272088163      1.080818996102
   19      -0.518998371378     -1.107272088163      1.080818996102
   20       0.519079400947      1.107368775745     -1.080353947659
 
 cartesian coordinates (angstrom) at end:
    1      0.07541060936691     0.01924029374201     1.01539486111530
    2      2.80582613795348     2.87048090036823     3.04618458334591
    3      1.36520776429329     1.46410090163356     3.04618458334591
    4      1.51602898302711     1.42562030114582     1.01539486111530
    5      1.44061837366020    -0.00000000433458     0.00000000000000
    6      0.00000000000000     1.44486059922241     0.00000000000000
    7      1.44061837366020    -0.00000000433458     2.03078972223061
    8      0.00000000000000     1.44486059922241     2.03078972223061
    9      1.41280965771222     2.69915463638205     1.01539486111530
   10      1.46842708960818     0.19056656206276     3.04618458334591
   11      0.02780871594798     1.25429403282507     3.04618458334591
   12      2.85342803137242     1.63542716561974     1.01539486111530
   13      2.23129026516073     0.65395078417476     0.14475117724513
   14      0.64994648215966     2.23577032757841     3.91682838094029
   15      2.09056485581986     2.09881147442339     3.91682838094029
   16      0.79067189150053     0.79090981071307     0.14475117724513
   17      0.64994648215966     2.23577032757841     2.17554078575153
   18      2.23129026516073     0.65395078417476     1.88603854498548
   19      0.79067189150053     0.79090981071307     1.88603854498548
   20      2.09056485581986     2.09881147442339     2.17554078575153
 
 cartesian forces (hartree/bohr) at end:
    1     -0.38815530987769    -0.26414584299495     0.00000000000000
    2      0.38814145971368     0.26410998602378     0.00000000000000
    3      0.38814145971368    -0.26410998602378     0.00000000000000
    4     -0.38815530987769     0.26414584299495     0.00000000000000
    5      0.00003687971210     0.00001725991268     0.00005580626539
    6      0.00003687971210    -0.00001725991268     0.00005580626539
    7      0.00003687971210     0.00001725991268    -0.00005580626539
    8      0.00003687971210    -0.00001725991268    -0.00005580626539
    9      0.18426062532598    -0.31864133524016     0.00000000000000
   10     -0.18429283054776     0.31864793487528     0.00000000000000
   11     -0.18429283054776    -0.31864793487528     0.00000000000000
   12      0.18426062532598     0.31864133524016     0.00000000000000
   13      0.09532142532579    -0.20276805642047     0.14081831641335
   14     -0.09533527734500     0.20278576223396    -0.14075772593618
   15     -0.09533527734500    -0.20278576223396    -0.14075772593618
   16      0.09532142532579     0.20276805642047     0.14081831641335
   17     -0.09533527734500     0.20278576223396     0.14075772593618
   18      0.09532142532579    -0.20276805642047    -0.14081831641335
   19      0.09532142532579     0.20276805642047    -0.14081831641335
   20     -0.09533527734500    -0.20278576223396     0.14075772593618
 frms,max,avg= 1.8183684E-01 3.8815531E-01  -5.151E-07  0.000E+00  0.000E+00 h/b
 
 cartesian forces (eV/Angstrom) at end:
    1    -19.95974687292825   -13.58292423044955     0.00000000000000
    2     19.95903466891914    13.58108039101223     0.00000000000000
    3     19.95903466891914   -13.58108039101223     0.00000000000000
    4    -19.95974687292825    13.58292423044955     0.00000000000000
    5      0.00189643088607     0.00088754032066     0.00286967330532
    6      0.00189643088607    -0.00088754032066     0.00286967330532
    7      0.00189643088607     0.00088754032066    -0.00286967330532
    8      0.00189643088607    -0.00088754032066    -0.00286967330532
    9      9.47506151935161   -16.38519487637433     0.00000000000000
   10     -9.47671757830061    16.38553424322832     0.00000000000000
   11     -9.47671757830061   -16.38553424322832     0.00000000000000
   12      9.47506151935161    16.38519487637433     0.00000000000000
   13      4.90162435667566   -10.42675181061801     7.24116836522983
   14     -4.90233665608267    10.42766228007826    -7.23805267788399
   15     -4.90233665608267   -10.42766228007826    -7.23805267788399
   16      4.90162435667566    10.42675181061801     7.24116836522983
   17     -4.90233665608267    10.42766228007826     7.23805267788399
   18      4.90162435667566   -10.42675181061801    -7.24116836522983
   19      4.90162435667566    10.42675181061801    -7.24116836522983
   20     -4.90233665608267   -10.42766228007826     7.23805267788399
 frms,max,avg= 9.3504252E+00 1.9959747E+01  -2.649E-05  0.000E+00  0.000E+00 e/A
 length scales=  5.444748376442  5.460781681837  7.675272816990 bohr
              =  2.881236747320  2.889721207114  4.061579444461 angstroms
 prteigrs : about to open file LaMnO30xo_EIG
 Fermi (or HOMO) energy (hartree) =   2.71738   Average Vxc (hartree)=  -0.99749
 Eigenvalues (hartree) for nkpt=  64  k points:
 kpt#   1, nband= 91, wtk=  0.01563, kpt=  0.0625  0.0625  0.0625 (reduced coord)
  -1.21707   -1.18241   -1.15835   -1.15084   -0.40426   -0.32007   -0.31177   -0.27269
  -0.24628   -0.22856   -0.22485   -0.21844   -0.19117   -0.18972   -0.15709   -0.15078
   0.39350    0.44106    0.47453    0.49358    0.49619    0.65693    0.72823    0.73201
   0.76299    0.77733    0.82594    0.89986    0.93084    0.96353    0.98179    1.01250
   1.01969    1.06619    1.09869    1.10834    1.14076    1.24001    1.26146    1.27314
   1.27970    1.29280    1.34747    1.36961    1.39943    1.46994    1.59479    1.61155
   1.64015    1.64416    1.66017    1.66705    1.69532    1.70147    1.70867    1.72612
   1.73715    1.76757    1.78339    1.80677    1.83250    1.83784    2.06835    2.09384
   2.17437    2.18923    2.21287    2.22331    2.23124    2.23245    2.28913    2.34270
   2.36808    2.38650    2.39375    2.40935    2.41603    2.43215    2.46109    2.47306
   2.49171    2.54285    2.55076    2.57254    2.59830    2.61432    2.64530    2.68848
   2.73957    2.75109    2.75387
 prteigrs : prtvol=0 or 1, do not print more k-points.
 
 
--------------------------------------------------------------------------------
 Components of total free energy (in Hartree) :
 
    Kinetic energy  =  6.30700074369077E+02
    Hartree energy  =  1.00796617382555E+02
    XC energy       = -1.98300424312536E+02
    Ewald energy    = -1.02515495134464E+03
    PspCore energy  =  1.99216614001919E+02
    Loc. psp. energy= -2.87554342409433E+02
    NL   psp  energy= -1.24972794511162E+02
    >>>>>>>>> Etotal= -7.05269206824222E+02
 
 Other information on the energy :
    Total energy(eV)= -1.91913511115316E+04 ; Band energy (Ha)=   2.2147339925E+02
--------------------------------------------------------------------------------
 
 Cartesian components of stress tensor (hartree/bohr^3)
  sigma(1 1)= -4.93241350E-01  sigma(3 2)=  0.00000000E+00
  sigma(2 2)= -5.05406288E-01  sigma(3 1)=  0.00000000E+00
  sigma(3 3)= -4.94195147E-01  sigma(2 1)=  0.00000000E+00
 
-Cartesian components of stress tensor (GPa)         [Pressure=  1.4640E+04 GPa]
- sigma(1 1)= -1.45116591E+04  sigma(3 2)=  0.00000000E+00
- sigma(2 2)= -1.48695639E+04  sigma(3 1)=  0.00000000E+00
- sigma(3 3)= -1.45397208E+04  sigma(2 1)=  0.00000000E+00
 
== END DATASET(S) ==============================================================
================================================================================
  
 -outvars: echo values of variables after computation  --------
            acell      5.4447483764E+00  5.4607816818E+00  7.6752728170E+00 Bohr
              amu      1.38905500E+02  5.49380500E+01  1.59994000E+01
        autoparal           4
             ecut      6.00000000E+01 Hartree
           etotal     -7.0526920682E+02
            fcart     -3.8815530988E-01 -2.6414584299E-01  1.3877787808E-18
                       3.8814145971E-01  2.6410998602E-01  1.3877787808E-18
                       3.8814145971E-01 -2.6410998602E-01  1.3877787808E-18
                      -3.8815530988E-01  2.6414584299E-01  1.3877787808E-18
                       3.6879712099E-05  1.7259912683E-05  5.5806265388E-05
                       3.6879712099E-05 -1.7259912683E-05  5.5806265388E-05
                       3.6879712099E-05  1.7259912683E-05 -5.5806265388E-05
                       3.6879712099E-05 -1.7259912683E-05 -5.5806265388E-05
                       1.8426062533E-01 -3.1864133524E-01  1.3877787799E-18
                      -1.8429283055E-01  3.1864793488E-01  1.3877787808E-18
                      -1.8429283055E-01 -3.1864793488E-01  1.3877787808E-18
                       1.8426062533E-01  3.1864133524E-01  1.3877787799E-18
                       9.5321425326E-02 -2.0276805642E-01  1.4081831641E-01
                      -9.5335277345E-02  2.0278576223E-01 -1.4075772594E-01
                      -9.5335277345E-02 -2.0278576223E-01 -1.4075772594E-01
                       9.5321425326E-02  2.0276805642E-01  1.4081831641E-01
                      -9.5335277345E-02  2.0278576223E-01  1.4075772594E-01
                       9.5321425326E-02 -2.0276805642E-01 -1.4081831641E-01
                       9.5321425326E-02  2.0276805642E-01 -1.4081831641E-01
                      -9.5335277345E-02 -2.0278576223E-01  1.4075772594E-01
-          fftalg         112
              ixc          11
              kpt      6.25000000E-02  6.25000000E-02  6.25000000E-02
                       1.87500000E-01  6.25000000E-02  6.25000000E-02
                       3.12500000E-01  6.25000000E-02  6.25000000E-02
                       4.37500000E-01  6.25000000E-02  6.25000000E-02
                       6.25000000E-02  1.87500000E-01  6.25000000E-02
                       1.87500000E-01  1.87500000E-01  6.25000000E-02
                       3.12500000E-01  1.87500000E-01  6.25000000E-02
                       4.37500000E-01  1.87500000E-01  6.25000000E-02
                       6.25000000E-02  3.12500000E-01  6.25000000E-02
                       1.87500000E-01  3.12500000E-01  6.25000000E-02
                       3.12500000E-01  3.12500000E-01  6.25000000E-02
                       4.37500000E-01  3.12500000E-01  6.25000000E-02
                       6.25000000E-02  4.37500000E-01  6.25000000E-02
                       1.87500000E-01  4.37500000E-01  6.25000000E-02
                       3.12500000E-01  4.37500000E-01  6.25000000E-02
                       4.37500000E-01  4.37500000E-01  6.25000000E-02
                       6.25000000E-02  6.25000000E-02  1.87500000E-01
                       1.87500000E-01  6.25000000E-02  1.87500000E-01
                       3.12500000E-01  6.25000000E-02  1.87500000E-01
                       4.37500000E-01  6.25000000E-02  1.87500000E-01
                       6.25000000E-02  1.87500000E-01  1.87500000E-01
                       1.87500000E-01  1.87500000E-01  1.87500000E-01
                       3.12500000E-01  1.87500000E-01  1.87500000E-01
                       4.37500000E-01  1.87500000E-01  1.87500000E-01
                       6.25000000E-02  3.12500000E-01  1.87500000E-01
                       1.87500000E-01  3.12500000E-01  1.87500000E-01
                       3.12500000E-01  3.12500000E-01  1.87500000E-01
                       4.37500000E-01  3.12500000E-01  1.87500000E-01
                       6.25000000E-02  4.37500000E-01  1.87500000E-01
                       1.87500000E-01  4.37500000E-01  1.87500000E-01
                       3.12500000E-01  4.37500000E-01  1.87500000E-01
                       4.37500000E-01  4.37500000E-01  1.87500000E-01
                       6.25000000E-02  6.25000000E-02  3.12500000E-01
                       1.87500000E-01  6.25000000E-02  3.12500000E-01
                       3.12500000E-01  6.25000000E-02  3.12500000E-01
                       4.37500000E-01  6.25000000E-02  3.12500000E-01
                       6.25000000E-02  1.87500000E-01  3.12500000E-01
                       1.87500000E-01  1.87500000E-01  3.12500000E-01
                       3.12500000E-01  1.87500000E-01  3.12500000E-01
                       4.37500000E-01  1.87500000E-01  3.12500000E-01
                       6.25000000E-02  3.12500000E-01  3.12500000E-01
                       1.87500000E-01  3.12500000E-01  3.12500000E-01
                       3.12500000E-01  3.12500000E-01  3.12500000E-01
                       4.37500000E-01  3.12500000E-01  3.12500000E-01
                       6.25000000E-02  4.37500000E-01  3.12500000E-01
                       1.87500000E-01  4.37500000E-01  3.12500000E-01
                       3.12500000E-01  4.37500000E-01  3.12500000E-01
                       4.37500000E-01  4.37500000E-01  3.12500000E-01
                       6.25000000E-02  6.25000000E-02  4.37500000E-01
                       1.87500000E-01  6.25000000E-02  4.37500000E-01
                       outvar_i_n : Printing only first  50 k-points.
         kptrlatt        8    0    0      0    8    0      0    0    8
          kptrlen      4.35579870E+01
P           mkmem          16
            natom          20
            nband          91
            ngfft          40      40      54
             nkpt          64
-           npkpt           4
             nsym           4
           ntypat           3
              occ      2.000000  2.000000  2.000000  2.000000  2.000000  2.000000
                       2.000000  2.000000  2.000000  2.000000  2.000000  2.000000
                       2.000000  2.000000  2.000000  2.000000  2.000000  2.000000
                       2.000000  2.000000  2.000000  2.000000  2.000000  2.000000
                       2.000000  2.000000  2.000000  2.000000  2.000000  2.000000
                       2.000000  2.000000  2.000000  2.000000  2.000000  2.000000
                       2.000000  2.000000  2.000000  2.000000  2.000000  2.000000
                       2.000000  2.000000  2.000000  2.000000  2.000000  2.000000
                       2.000000  2.000000  2.000000  2.000000  2.000000  2.000000
                       2.000000  2.000000  2.000000  2.000000  2.000000  2.000000
                       2.000000  2.000000  2.000000  2.000000  2.000000  2.000000
                       2.000000  2.000000  2.000000  2.000000  2.000000  2.000000
                       2.000000  2.000000  2.000000  2.000000  2.000000  2.000000
                       2.000000  2.000000  2.000000  2.000000  2.000000  2.000000
                       2.000000  2.000000  2.000000  2.000000  0.000000  0.000000
                       0.000000
           shiftk      5.00000000E-01  5.00000000E-01  5.00000000E-01
          spgroup          26
           strten     -4.9324135027E-01 -5.0540628849E-01 -4.9419514673E-01
                       0.0000000000E+00  0.0000000000E+00  0.0000000000E+00
           symrel      1  0  0   0  1  0   0  0  1       1  0  0   0 -1  0   0  0  1
                       1  0  0   0  1  0   0  0 -1       1  0  0   0 -1  0   0  0 -1
            tnons      0.0000000  0.0000000  0.0000000     0.5000000  0.5000000  0.0000000
                       0.0000000  0.0000000  0.5000000     0.5000000  0.5000000  0.5000000
           toldfe      1.00000000E-06 Hartree
            typat      1  1  1  1  2  2  2  2  3  3  3  3  3  3  3  3  3  3  3  3
              wtk        0.01563    0.01563    0.01563    0.01563    0.01563    0.01563
                         0.01563    0.01563    0.01563    0.01563    0.01563    0.01563
                         0.01563    0.01563    0.01563    0.01563    0.01563    0.01563
                         0.01563    0.01563    0.01563    0.01563    0.01563    0.01563
                         0.01563    0.01563    0.01563    0.01563    0.01563    0.01563
                         0.01563    0.01563    0.01563    0.01563    0.01563    0.01563
                         0.01563    0.01563    0.01563    0.01563    0.01563    0.01563
                         0.01563    0.01563    0.01563    0.01563    0.01563    0.01563
                         0.01563    0.01563
                       outvars : Printing only first  50 k-points.
           xangst      7.5410609367E-02  1.9240293742E-02  1.0153948611E+00
                       2.8058261380E+00  2.8704809004E+00  3.0461845833E+00
                       1.3652077643E+00  1.4641009016E+00  3.0461845833E+00
                       1.5160289830E+00  1.4256203011E+00  1.0153948611E+00
                       1.4406183737E+00 -4.3345770361E-09  0.0000000000E+00
                       3.1988153763E-16  1.4448605992E+00  0.0000000000E+00
                       1.4406183737E+00 -4.3345770361E-09  2.0307897222E+00
                       3.1988153763E-16  1.4448605992E+00  2.0307897222E+00
                       1.4128096577E+00  2.6991546364E+00  1.0153948611E+00
                       1.4684270896E+00  1.9056656206E-01  3.0461845833E+00
                       2.7808715948E-02  1.2542940328E+00  3.0461845833E+00
                       2.8534280314E+00  1.6354271656E+00  1.0153948611E+00
                       2.2312902652E+00  6.5395078417E-01  1.4475117725E-01
                       6.4994648216E-01  2.2357703276E+00  3.9168283809E+00
                       2.0905648558E+00  2.0988114744E+00  3.9168283809E+00
                       7.9067189150E-01  7.9090981071E-01  1.4475117725E-01
                       6.4994648216E-01  2.2357703276E+00  2.1755407858E+00
                       2.2312902652E+00  6.5395078417E-01  1.8860385450E+00
                       7.9067189150E-01  7.9090981071E-01  1.8860385450E+00
                       2.0905648558E+00  2.0988114744E+00  2.1755407858E+00
            xcart      1.4250539922E-01  3.6358885889E-02  1.9188182042E+00
                       5.3022429772E+00  5.4244227714E+00  5.7564546127E+00
                       2.5798687890E+00  2.7667497350E+00  5.7564546127E+00
                       2.8648795874E+00  2.6940319386E+00  1.9188182042E+00
                       2.7223741882E+00 -8.1911635002E-09  0.0000000000E+00
                       6.0448850108E-16  2.7303908327E+00  0.0000000000E+00
                       2.7223741882E+00 -8.1911635002E-09  3.8376364085E+00
                       6.0448850108E-16  2.7303908327E+00  3.8376364085E+00
                       2.6698233310E+00  5.1006630531E+00  1.9188182042E+00
                       2.7749250455E+00  3.6011861238E-01  5.7564546127E+00
                       5.2550857249E-02  2.3702722122E+00  5.7564546127E+00
                       5.3921975192E+00  3.0905094533E+00  1.9188182042E+00
                       4.2165275241E+00  1.2357878865E+00  2.7354008241E-01
                       1.2282208523E+00  4.2249936152E+00  7.4017329495E+00
                       3.9505950405E+00  3.9661788912E+00  7.4017329495E+00
                       1.4941533359E+00  1.4946029381E+00  2.7354008241E-01
                       1.2282208523E+00  4.2249936152E+00  4.1111762760E+00
                       4.2165275241E+00  1.2357878865E+00  3.5640963261E+00
                       1.4941533359E+00  1.4946029381E+00  3.5640963261E+00
                       3.9505950405E+00  3.9661788912E+00  4.1111762760E+00
             xred      2.6172999993E-02  6.6581833897E-03  2.5000000000E-01
                       9.7382700001E-01  9.9334181211E-01  7.5000000000E-01
                       4.7382700001E-01  5.0665818489E-01  7.5000000000E-01
                       5.2617299999E-01  4.9334181361E-01  2.5000000000E-01
                       5.0000000000E-01 -1.4999983478E-09  0.0000000000E+00
                       1.1102230246E-16  4.9999999850E-01  0.0000000000E+00
                       5.0000000000E-01 -1.4999983478E-09  5.0000000000E-01
                       1.1102230246E-16  4.9999999850E-01  5.0000000000E-01
                       4.9034834053E-01  9.3405364841E-01  2.5000000000E-01
                       5.0965165947E-01  6.5946348594E-02  7.5000000000E-01
                       9.6516594736E-03  4.3405364841E-01  7.5000000000E-01
                       9.9034834053E-01  5.6594634859E-01  2.5000000000E-01
                       7.7442100766E-01  2.2630237912E-01  3.5639134781E-02
                       2.2557899234E-01  7.7369758788E-01  9.6436089322E-01
                       7.2557899234E-01  7.2630240912E-01  9.6436089322E-01
                       2.7442100766E-01  2.7369761788E-01  3.5639134781E-02
                       2.2557899234E-01  7.7369758788E-01  5.3563910678E-01
                       7.7442100766E-01  2.2630237912E-01  4.6436086522E-01
                       2.7442100766E-01  2.7369761788E-01  4.6436086522E-01
                       7.2557899234E-01  7.2630240912E-01  5.3563910678E-01
            znucl       57.00000   25.00000    8.00000
 
================================================================================


- Timing analysis has been suppressed with timopt=0



================================================================================

 Suggested references for the acknowledgment of ABINIT usage.

 The users of ABINIT have little formal obligations with respect to the ABINIT group
 (those specified in the GNU General Public License, http://www.gnu.org/copyleft/gpl.txt).
 However, it is common practice in the scientific literature,
 to acknowledge the efforts of people that have made the research possible.
 In this spirit, please find below suggested citations of work written by ABINIT developers,
 corresponding to implementations inside of ABINIT that you have used in the present run.
 Note also that it will be of great value to readers of publications presenting these results,
 to read papers enabling them to understand the theoretical formalism and details
 of the ABINIT implementation.
 For information on why they are suggested, see also http://www.abinit.org/about/?text=acknowledgments.
-
- [1] Recent developments in the ABINIT software package.
- Computer Phys. Comm. 205, 106 (2016).
- X.Gonze, F.Jollet, F.Abreu Araujo, D.Adams, B.Amadon, T.Applencourt,
- C.Audouze, J.-M.Beuken, J.Bieder, A.Bokhanchuk, E.Bousquet, F.Bruneval
- D.Caliste, M.Cote, F.Dahm, F.Da Pieve, M.Delaveau, M.Di Gennaro,
- B.Dorado, C.Espejo, G.Geneste, L.Genovese, A.Gerossier, M.Giantomassi,
- Y.Gillet, D.R.Hamann, L.He, G.Jomard, J.Laflamme Janssen, S.Le Roux,
- A.Levitt, A.Lherbier, F.Liu, I.Lukacevic, A.Martin, C.Martins,
- M.J.T.Oliveira, S.Ponce, Y.Pouillon, T.Rangel, G.-M.Rignanese,
- A.H.Romero, B.Rousseau, O.Rubel, A.A.Shukri, M.Stankovski, M.Torrent,
- M.J.Van Setten, B.Van Troeye, M.J.Verstraete, D.Waroquier, J.Wiktor,
- B.Xue, A.Zhou, J.W.Zwanziger.
- Comment : the fourth generic paper describing the ABINIT project.
- Note that a version of this paper, that is not formatted for Computer Phys. Comm. 
- is available at http://www.abinit.org/about/ABINIT16.pdf .
- The licence allows the authors to put it on the Web.
-
- [2] Optimized norm-conserving Vanderbilt pseudopotentials.
- D.R. Hamann, Phys. Rev. B 88, 085117 (2013).
- Comment: Some pseudopotential generated using the ONCVPSP code were used.
-
- [3] ABINIT : First-principles approach of materials and nanosystem properties.
- Computer Phys. Comm. 180, 2582-2615 (2009).
- X. Gonze, B. Amadon, P.-M. Anglade, J.-M. Beuken, F. Bottin, P. Boulanger, F. Bruneval,
- D. Caliste, R. Caracas, M. Cote, T. Deutsch, L. Genovese, Ph. Ghosez, M. Giantomassi
- S. Goedecker, D.R. Hamann, P. Hermet, F. Jollet, G. Jomard, S. Leroux, M. Mancini, S. Mazevet,
- M.J.T. Oliveira, G. Onida, Y. Pouillon, T. Rangel, G.-M. Rignanese, D. Sangalli, R. Shaltaf,
- M. Torrent, M.J. Verstraete, G. Zerah, J.W. Zwanziger
- Comment : the third generic paper describing the ABINIT project.
- Note that a version of this paper, that is not formatted for Computer Phys. Comm. 
- is available at http://www.abinit.org/about/ABINIT_CPC_v10.pdf .
- The licence allows the authors to put it on the Web.
-
- [4] A brief introduction to the ABINIT software package.
- Z. Kristallogr. 220, 558-562 (2005).
- X. Gonze, G.-M. Rignanese, M. Verstraete, J.-M. Beuken, Y. Pouillon, R. Caracas, F. Jollet,
- M. Torrent, G. Zerah, M. Mikami, Ph. Ghosez, M. Veithen, J.-Y. Raty, V. Olevano, F. Bruneval,
- L. Reining, R. Godby, G. Onida, D.R. Hamann, and D.C. Allan.
- Comment : the second generic paper describing the ABINIT project. Note that this paper
- should be cited especially if you are using the GW part of ABINIT, as several authors
- of this part are not in the list of authors of the first or third paper.
- The .pdf of the latter paper is available at http://www.abinit.org/about/zfk_0505-06_558-562.pdf.
- Note that it should not redistributed (Copyright by Oldenburg Wissenshaftverlag,
- the licence allows the authors to put it on the Web).
-
- And optionally:
-
- [5] First-principles computation of material properties : the ABINIT software project. 
- X. Gonze, J.-M. Beuken, R. Caracas, F. Detraux, M. Fuchs, G.-M. Rignanese, L. Sindic,
- M. Verstraete, G. Zerah, F. Jollet, M. Torrent, A. Roy, M. Mikami, Ph. Ghosez, J.-Y. Raty, D.C. Allan.
- Computational Materials Science 25, 478-492 (2002). http://dx.doi.org/10.1016/S0927-0256(02)00325-7
- Comment : the original paper describing the ABINIT project.
-
- Proc.   0 individual time (sec): cpu=      14450.3  wall=       4825.6
 
================================================================================
 
 Calculation completed.
.Delivered   0 WARNINGs and   0 COMMENTs to log file.
+Overall time at end (sec) : cpu=      58777.4  wall=      19302.2
